
                                 *****************
                                 * O   R   C   A *
                                 *****************

                                            #,                                       
                                            ###                                      
                                            ####                                     
                                            #####                                    
                                            ######                                   
                                           ########,                                 
                                     ,,################,,,,,                         
                               ,,#################################,,                 
                          ,,##########################################,,             
                       ,#########################################, ''#####,          
                    ,#############################################,,   '####,        
                  ,##################################################,,,,####,       
                ,###########''''           ''''###############################       
              ,#####''   ,,,,##########,,,,          '''####'''          '####       
            ,##' ,,,,###########################,,,                        '##       
           ' ,,###''''                  '''############,,,                           
         ,,##''                                '''############,,,,        ,,,,,,###''
      ,#''                                            '''#######################'''  
     '                                                          ''''####''''         
             ,#######,   #######,   ,#######,      ##                                
            ,#'     '#,  ##    ##  ,#'     '#,    #''#        ,####,    ,#,          
            ##       ##  ##   ,#'  ##            #'  '#       #'       ,# #          
            ##       ##  #######   ##           ,######,      #####,      #          
            '#,     ,#'  ##    ##  '#,     ,#' ,#      #,     #,   #      #          
             '#######'   ##     ##  '#######'  #'      '#     '####' #    #          



                #########################################################
                #                        -***-                          #
                #          Department of theory and spectroscopy        #
                #                                                       #
                #                      Frank Neese                      #
                #                                                       #
                #     Directorship, Architecture, Infrastructure        #
                #                    SHARK, DRIVERS                     #
                #        Core code/Algorithms in most modules           #
                #                                                       #
                #        Max Planck Institute fuer Kohlenforschung      #
                #                Kaiser Wilhelm Platz 1                 #
                #                 D-45470 Muelheim/Ruhr                 #
                #                      Germany                          #
                #                                                       #
                #                  All rights reserved                  #
                #                        -***-                          #
                #########################################################


                         Program Version 6.1.0  -  RELEASE   -
                                (GIT: $679e74b$)
                          ($2025-06-10 18:02:51 +0200$)


 With contributions from (in alphabetic order):
[Max-Planck-Institut fuer Kohlenforschung]                               
  Daniel Aravena         : Magnetic Suceptibility                        
  Michael Atanasov       : Ab Initio Ligand Field Theory (pilot matlab implementation)
  Alexander A. Auer      : GIAO ZORA, VPT2 properties, NMR spectrum      
  Ute Becker             : All parallelization in ORCA, NUMFREQ, NUMCALC 
  Giovanni Bistoni       : ED, misc. LED, open-shell LED, HFLD           
  Dmytro Bykov           : pre 5.0 version of the SCF Hessian            
  Marcos Casanova-Páez   : Triplet and SCS-CIS(D). UHF-(DLPNO)-IP/EA/STEOM-CCSD. UHF-CVS-IP/STEOM-CCSD   
  Vijay G. Chilkuri      : MRCI spin determinant printing, contributions to CSF-ICE 
  Pauline Colinet        : FMM embedding                                 
  Dipayan Datta          : RHF DLPNO-CCSD density                        
  Achintya Kumar Dutta   : EOM-CC, STEOM-CC                              
  Nicolas Foglia         : Exact transition moments, OPA infrastructure, MCD improvements    
  Dmitry Ganyushin       : Spin-Orbit,Spin-Spin,Magnetic field MRCI      
  Miquel Garcia-Rates    : C-PCM and meta-GGA Hessian, CCSD/C-PCM, Gaussian charge scheme 
  Tiago L. C. Gouveia    : GS-ROHF, GS-ROCIS                             
  Yang Guo               : DLPNO-NEVPT2, F12-NEVPT2, CIM, IAO-localization        
  Andreas Hansen         : Spin unrestricted coupled pair/coupled cluster methods 
  Ingolf Harden          : AUTO-CI MPn and infrastructure                
  Benjamin Helmich-Paris : MC-RPA, TRAH-(SCF,CASSCF), AVAS, COSX integrals, SCF dyn. polar., MC-PDFT, srDFT 
  Lee Huntington         : MR-EOM, pCC                                   
  Robert Izsak           : Overlap fitted RIJCOSX, COSX-SCS-MP3, EOM     
  Riya Kayal             : Wick's Theorem for AUTO-CI, AUTO-CI UHF-CCSDT 
  Emily Kempfer          : AUTO-CI RHF CISDT and CCSDT, approximate NEVPT4
  Christian Kollmar      : KDIIS, OOCD, Brueckner-CCSD(T), CCSD density, CASPT2, CASPT2-K, improved NEVPT2 
  Axel Koslowski         : Symmetry handling                             
  Simone Kossmann        : meta-GGA functionals, TD-DFT gradient, OOMP2, (MP2 Hessian; deprecated post 5.0) 
  Lucas Lang             : DCDCAS, Hyperfine gauge corrections, ICE-SOC+SSC
  Marvin Lechner         : AUTO-CI (C++ implementation), FIC-MRCC        
  Spencer Leger          : CASSCF response                               
  Dagmar Lenk            : GEPOL surface, SMD, ORCA-2-JSON               
  Dimitrios Liakos       : Extrapolation schemes; Compound Job, Property file
  Dimitrios Manganas     : Further ROCIS development; embedding schemes. LFT, Crystal Embedding 
  Dimitrios Pantazis     : SARC Basis sets                               
  Anastasios Papadopoulos: AUTO-CI, single reference methods and gradients 
  Taras Petrenko         : pre 6.0 DFT Hessian and TD-DFT gradient,  ECA, NRVS 
  Petra Pikulova         : Analytic Raman intensities                    
  Peter Pinski           : DLPNO-MP2, DLPNO-MP2 Gradient                 
  Shashank Vittal Rao    : ES-AILFT, MagRelax                            
  Christoph Reimann      : Effective Core Potentials                     
  Marius Retegan         : Local ZFS, SOC                                
  Christoph Riplinger    : Optimizer, TS searches, QM/MM, DLPNO-CCSD(T), (RO)-DLPNO pert. Triples 
  Michael Roemelt        : Original ROCIS implementation, recursive CI coupling coefficients
  Masaaki Saitow         : Open-shell DLPNO-CCSD energy and density      
  Barbara Sandhoefer     : DKH picture change effects                    
  Yorick L. A. Schmerwitz: GMF and freeze-and-release deltaSCF, NEB S-IDPP initial path                    
  Kantharuban Sivalingam : CASSCF convergence/infrastructure, NEVPT2, NEVPT3, NEVPT4(SD), FIC-MRCI and CEPA variants
  Bernardo de Souza      : ESD, SOC TD-DFT                               
  Georgi L. Stoychev     : AutoAux, RI-MP2 NMR, DLPNO-MP2 response, X2C  
  Van Anh Tran           : RI-MP2 g-tensors                              
  Willem Van den Heuvel  : Paramagnetic NMR                              
  Zikuan Wang            : NOTCH, Electric field optimization            
  Frank Wennmohs         : Technical directorship and infrastructure     
  Hang Xu                : AUTO-CI-Response properties                   
                                                                         
[FACCTs GmbH]                                                            
  Markus Bursch, Nicolas Foglia, Miquel Garcia-Rates, Ingolf Harden, Hagen Neugebauer, Anastasios Papadopoulos, 
  Christoph Riplinger, Bernardo de Souza, Georgi L. Stoychev                                                    
                                                                 
  APM, various basis sets, CI-OPT, improved COSX, DLPNO-Multilevel,           
  DOCKER, DRACO, updates on ESD, Fragmentator, GOAT, IRC, LR-CPCM, L-BFGS, MBIS, meta-GGA TD-DFT gradient, ML-optimized integration grids, 
  MM, NACMEs, nearIR, NEB, NEB-TS, NL-DFT gradient (VV10), 2- and 3-layer-ONIOM, interface openCOSMO-RS, QMMM,   
  Crystal-QMMM, RESP, rigid body optimization, SF, symmetry and pop. for TD-DFT, various functionals, SOLVATOR                                   
                                                                         
[Other institutions]                                                     
  V. Asgeirsson          : NEB                                           
  Christoph Bannwarth    : sTDA-DFT, sTD-DFT, PBEh-3c, B97-3c, D3        
  Giovanni Bistoni       : ETS/NOCV, ADLD/ADEX, COVALED                  
  Martin Brehm           : Molecular dynamics                            
  Ronald Cardenas        : ETS/NOCV                                      
  Martina Colucci        : COVALED                                       
  Sebastian Ehlert       : rSCAN, r2SCAN, r2SCAN-3c, D4, dhf basis sets  
  Marvin Friede          : D4 for Fr, Ra, Ac-Lr                          
  Lars Goerigk           : TD-DFT with DH, B97 family of functionals     
  Stefan Grimme          : VdW corrections, initial TS optimization, DFT functionals, gCP, sTDA/sTD-DF 
  Waldemar Hujo          : DFT-NL                                        
  H. Jonsson             : NEB                                           
  Holger Kruse           : gCP                                           
  Marcel Mueller         : wB97X-3c, vDZP basis set                      
  Hagen Neugebauer       : wr2SCAN, Native XTB                           
  Gianluca Regni         : ADLD/ADEX                                     
  Tobias Risthaus        : pre 6.0 range-separated hybrid DFT and stability analysis
  Lukas Wittmann         : regularized MP2, r2SCAN double-hybrids, wr2SCAN        
                                                                         
We gratefully acknowledge several colleagues who have allowed us to      
interface, adapt or use parts of their codes:                            
  Ed Valeev, F. Pavosevic, A. Kumar             : LibInt (2-el integral package), F12 methods 
  Garnet Chan, S. Sharma, J. Yang, R. Olivares  : DMRG                   
  Ulf Ekstrom                                   : XCFun DFT Library      
  Mihaly Kallay                                 : mrcc  (arbitrary order and MRCC methods)
  Frank Weinhold                                : gennbo (NPA and NBO analysis)           
  Simon Mueller                                 : openCOSMO-RS                            
  Christopher J. Cramer and Donald G. Truhlar   : smd solvation model                     
  S Lehtola, MJT Oliveira, MAL Marques          : LibXC Library                           
  Liviu Ungur et al                             : ANISO software                          


 Your calculation uses the libint2 library for the computation of 2-el integrals
 For citations please refer to: http://libint.valeyev.net

 Your ORCA version has been built with support for libXC version: 7.0.0
 For citations please refer to: https://libxc.gitlab.io

 This ORCA versions uses:
   CBLAS   interface :  Fast vector & matrix operations
   LAPACKE interface :  Fast linear algebra routines
   SCALAPACK package :  Parallel linear algebra routines
   Shared memory     :  Shared parallel matrices
   BLAS/LAPACK       :  OpenBLAS 0.3.29  USE64BITINT DYNAMIC_ARCH NO_AFFINITY Haswell SINGLE_THREADED
        Core in use  :  Haswell
   Copyright (c) 2011-2014, The OpenBLAS Project


  ***********************************
  * Starting time: Thu Aug 14 16:28:24 2025
  * Host name:     CHEMLAB02
  * Process ID:    1772608
  * Working dir.:  /home/vivek/mm/lab5/hf/dimer
  ***********************************



***************************************
The coordinates will be read from file: dimer-input-coordinates.xyz
***************************************


================================================================================

----- Orbital basis set information -----
Your calculation utilizes the basis: 6-31G**
   H-He, Li-Ne : W. J. Hehre, R. Ditchfield and J.A. Pople, J. Chem. Phys. 56, 2257 (1972).
                 Note: He and Ne are unpublished basis sets taken from the Gaussian program.
                 Note: Li and B from J. D. Dill and J. A. Pople, J. Chem. Phys. 62, 2921 (1975).
   Na - Ar     : M. M. Francl, W. J. Pietro, W. J. Hehre, J. S. Binkley, M. S. Gordon, 
                 D. J. DeFrees and J. A. Pople, J. Chem. Phys. 77, 3654 (1982).
   K - Zn      : V. A. Rassolov, J. A. Pople, M. A. Ratner, and T. L. Windus, J. Chem. Phys. 109, 1223 (1998).

================================================================================
                                        WARNINGS
                       Please study these warnings very carefully!
================================================================================


WARNING: The frozen-core approximation for MP2-gradient calculations is turned on by default.

WARNING: Geometry Optimization
  ===> : Switching off AutoStart
         For restart on a previous wavefunction, please use MOREAD

WARNING: Post HF methods need fully converged wavefunctions
  ===> : Setting SCFConvForced true
         You can overwrite this default with %scf ConvForced false 


================================================================================
                                       INPUT FILE
================================================================================
NAME = dimer.inp
|  1> ! MP2 6-31G** opt numfreq
|  2> 
|  3> * xyzfile 0 1 dimer-input-coordinates.xyz
|  4> 
|  5>                          ****END OF INPUT****
================================================================================

                       *****************************
                       * Geometry Optimization Run *
                       *****************************

Geometry optimization settings:
Update method            Update   .... BFGS
Choice of coordinates    CoordSys .... (2022) Redundant Internals
Initial Hessian          InHess   .... Almloef's Model
Max. no of cycles        MaxIter  .... 50

Convergence Tolerances:
Energy Change            TolE     ....  5.0000e-06 Eh
Max. Gradient            TolMAXG  ....  3.0000e-04 Eh/bohr
RMS Gradient             TolRMSG  ....  1.0000e-04 Eh/bohr
Max. Displacement        TolMAXD  ....  4.0000e-03 bohr
RMS Displacement         TolRMSD  ....  2.0000e-03 bohr
Strict Convergence                .... False

------------------------------------------------------------------------------
                        ORCA OPTIMIZATION COORDINATE SETUP
------------------------------------------------------------------------------

The optimization will be done in redundant internal coordinates (2022)
Making redundant internal coordinates   ...  (2022 redundants) done
Evaluating the initial hessian          ...  (Almloef) done
Evaluating the coordinates              ...  done
Calculating the B-matrix                .... done
Calculating the G-matrix                .... done
The number of degrees of freedom        ....    6

    -----------------------------------------------------------------
                    Redundant Internal Coordinates


    -----------------------------------------------------------------
         Definition                    Initial Value    Approx d2E/dq
    -----------------------------------------------------------------
      1. B(H   1,F   0)                  0.9392         0.521506   
      2. B(H   2,F   0)                  1.5747         0.050501   
      3. B(F   3,H   2)                  0.9392         0.521503   
      4. A(H   1,F   0,H   2)          161.6151         0.224265   
      5. A(F   0,H   2,F   3)          159.8093         0.224265   
      6. D(F   3,H   2,F   0,H   1)    175.2890         0.010000   
    -----------------------------------------------------------------

Number of atoms                         .... 4
Number of degrees of freedom            .... 6


         *************************************************************
         *                GEOMETRY OPTIMIZATION CYCLE   1            *
         *************************************************************
---------------------------------
CARTESIAN COORDINATES (ANGSTROEM)
---------------------------------
  F     -1.446491    2.408914    0.108757
  H     -0.601952    2.312918    0.508277
  H     -3.007413    2.473446   -0.089047
  F     -3.838349    2.600489   -0.507957

----------------------------
CARTESIAN COORDINATES (A.U.)
----------------------------
  NO LB      ZA    FRAG     MASS         X           Y           Z
   0 F     9.0000    0    18.998   -2.733472    4.552188    0.205521
   1 H     1.0000    0     1.008   -1.137524    4.370782    0.960504
   2 H     1.0000    0     1.008   -5.683187    4.674136   -0.168274
   3 F     9.0000    0    18.998   -7.253428    4.914212   -0.959900

--------------------------------
INTERNAL COORDINATES (ANGSTROEM)
--------------------------------
 F      0   0   0     0.000000000000     0.00000000     0.00000000
 H      1   0   0     0.939189855640     0.00000000     0.00000000
 H      1   2   0     1.574728005569   161.61512375     0.00000000
 F      3   1   2     0.939191220170   159.80931378   175.28898559

---------------------------
INTERNAL COORDINATES (A.U.)
---------------------------
 F      0   0   0     0.000000000000     0.00000000     0.00000000
 H      1   0   0     1.774811614917     0.00000000     0.00000000
 H      1   2   0     2.975804665942   161.61512375     0.00000000
 F      3   1   2     1.774814193505   159.80931378   175.28898559

---------------------
BASIS SET INFORMATION
---------------------
There are 2 groups of distinct atoms

 Group   1 Type F   : 10s4p1d contracted to 3s2p1d pattern {631/31/1}
 Group   2 Type H   : 4s1p contracted to 2s1p pattern {31/1}

Atom   0F    basis set group =>   1
Atom   1H    basis set group =>   2
Atom   2H    basis set group =>   2
Atom   3F    basis set group =>   1
------------------------------------------------------------------------------
                             ORCA STARTUP CALCULATIONS
------------------------------------------------------------------------------
------------------------------------------------------------------------------
                   ___                                                        
                  /   \      - P O W E R E D   B Y -                         
                 /     \                                                     
                 |  |  |   _    _      __       _____    __    __             
                 |  |  |  | |  | |    /  \     |  _  \  |  |  /  |          
                  \  \/   | |  | |   /    \    | | | |  |  | /  /          
                 / \  \   | |__| |  /  /\  \   | |_| |  |  |/  /          
                |  |  |   |  __  | /  /__\  \  |    /   |      \           
                |  |  |   | |  | | |   __   |  |    \   |  |\   \          
                \     /   | |  | | |  |  |  |  | |\  \  |  | \   \       
                 \___/    |_|  |_| |__|  |__|  |_| \__\ |__|  \__/        
                                                                              
                      - O R C A' S   B I G   F R I E N D -                    
                                      &                                       
                       - I N T E G R A L  F E E D E R -                       
                                                                              
 v1 FN, 2020, v2 2021, v3 2022-2024                                           
------------------------------------------------------------------------------


----------------------
SHARK INTEGRAL PACKAGE
----------------------

Number of atoms                             ...      4
Number of basis functions                   ...     38
Number of shells                            ...     18
Maximum angular momentum                    ...      2
Integral batch strategy                     ... SHARK/LIBINT Hybrid
RI-J (if used) integral strategy            ... SPLIT-RIJ (Revised 2003 algorithm where possible)
Printlevel                                  ...      1
Contraction scheme used                     ... SEGMENTED contraction
Prescreening option                         ... SCHWARTZ
   Thresh                                   ... 2.500e-11
   Tcut                                     ... 2.500e-12
   Tpresel                                  ... 2.500e-12 
Coulomb Range Separation                    ... NOT USED
Exchange Range Separation                   ... NOT USED
Multipole approximations                    ... NOT USED
Finite Nucleus Model                        ... NOT USED
CABS basis                                  ... NOT available
Auxiliary Coulomb fitting basis             ... NOT available
Auxiliary J/K fitting basis                 ... NOT available
Auxiliary Correlation fitting basis         ... NOT available
Auxiliary 'external' fitting basis          ... NOT available

Checking pre-screening integrals            ... done (  0.0 sec) Dimension = 18
   => SHARK Basis and OBASIS are compatible. Storing Pre-screening
Shell pair information
Shell pair cut-off parameter TPreSel        ...   2.5e-12
Total number of shell pairs                 ...       171
Shell pairs after pre-screening             ...       169
Total number of primitive shell pairs       ...       868
Primitive shell pairs kept                  ...       703
          la=0 lb=0:     54 shell pairs
          la=1 lb=0:     59 shell pairs
          la=1 lb=1:     21 shell pairs
          la=2 lb=0:     20 shell pairs
          la=2 lb=1:     12 shell pairs
          la=2 lb=2:      3 shell pairs

Checking whether 4 symmetric matrices of dimension 38 fit in memory
:Max Core in MB      =   4096.00
 MB in use           =      1.41
 MB left             =   4094.59
 MB needed           =      0.02
 Data fit in memory  = YES
Calculating Nuclear repulsion               ... done (  0.0 sec) ENN=     32.079362092664 Eh

Diagonalization of the overlap matrix:
Smallest eigenvalue                        ... 3.798e-02
Time for diagonalization                   ...    0.000 sec
Threshold for overlap eigenvalues          ... 1.000e-07
Number of eigenvalues below threshold      ... 0
Time for construction of square roots      ...    0.000 sec
Total time needed                          ...    0.000 sec

-------------------
DFT GRID GENERATION
-------------------

General Integration Accuracy     IntAcc      ... 4.388
Radial Grid Type                 RadialGrid  ... OptM3 with GC (2021)
Angular Grid (max. ang.)         AngularGrid ... 4 (Lebedev-302)
Angular grid pruning method      GridPruning ... 4 (adaptive)
Weight generation scheme         WeightScheme... mBecke (2022)
Basis function cutoff            BFCut       ... 1.0000e-11
Integration weight cutoff        WCut        ... 1.0000e-14
Partially contracted basis set               ... off
Rotationally invariant grid construction     ... off
Angular grids for H and He will be reduced by one unit

Total number of grid points                  ...    18886
Total number of batches                      ...      296
Average number of points per batch           ...       63
Average number of grid points per atom       ...     4722
Grids setup in   0.0 sec
Initializing property integral containers    ... done (  0.0 sec)

SHARK setup successfully completed in   0.1 seconds

Maximum memory used throughout the entire STARTUP-calculation: 7.7 MB
-------------------------------------------------------------------------------
                                 ORCA GUESS
                   Start orbitals & Density for SCF / CASSCF
-------------------------------------------------------------------------------

------------
SCF SETTINGS
------------
Hamiltonian:
 Ab initio Hamiltonian  Method          .... Hartree-Fock(GTOs)


General Settings:
 Integral files         IntName         .... dimer
 Hartree-Fock type      HFTyp           .... RHF
 Total Charge           Charge          ....    0
 Multiplicity           Mult            ....    1
 Number of Electrons    NEL             ....   20
 Basis Dimension        Dim             ....   38
 Nuclear Repulsion      ENuc            ....     32.0793620927 Eh

Convergence Acceleration:
 AO-DIIS                CNVDIIS         .... on
   Start iteration      DIISMaxIt       ....    12
   Startup error        DIISStart       ....  0.200000
   # of expansion vecs  DIISMaxEq       ....     5
   Bias factor          DIISBfac        ....   1.050
   Max. coefficient     DIISMaxC        ....  10.000
 MO-DIIS                CNVKDIIS        .... off
 Trust-Rad. Augm. Hess. CNVTRAH         .... auto
   Auto Start mean grad. ratio tolernc. ....  1.125000
   Auto Start start iteration           ....    50
   Auto Start num. interpolation iter.  ....    10
   Max. Number of Micro iterations      ....    24
   Max. Number of Macro iterations      .... Maxiter - #DIIS iter
   Number of Davidson start vectors     ....     2
   Converg. threshold    (grad. norm)   ....   1.000e-05
   Grad. Scal. Fac. for Micro threshold ....   0.100
   Minimum threshold for Micro iter.    ....   1.000e-02
   NR start threshold (gradient norm)   ....   1.000e-04
   Initial trust radius                 ....   0.400
   Minimum AH scaling param. (alpha)    ....   1.000
   Maximum AH scaling param. (alpha)    .... 1000.000
   Quad. conv. algorithm                .... NR
   White noise on init. David. guess    .... on
   Maximum white noise                  ....   0.010
   Pseudo random numbers                .... off
   Inactive MOs                         .... canonical
   Orbital update algorithm             .... Taylor
   Preconditioner                       .... Diag
   Full preconditioner red. dimension   ....   250
 SOSCF                 CNVSOSCF           .... on
   Start iteration     SOSCFMaxIt         ....   150
   Startup grad/error  SOSCFStart         ....  0.003300
   Hessian update      SOSCFHessUp        .... L-BFGS
   Autom. constraints  SOSCFAutoConstrain .... off
 Level Shifting         CNVShift        .... on
   Level shift para.    LevelShift      ....    0.2500
   Turn off err/grad.   ShiftErr        ....    0.0010
 Zerner damping         CNVZerner       .... off
 Static damping         CNVDamp         .... on
   Fraction old density DampFac         ....    0.7000
   Max. Damping (<1)    DampMax         ....    0.9800
   Min. Damping (>=0)   DampMin         ....    0.0000
   Turn off err/grad.   DampErr         ....    0.1000

SCF Procedure:
 Maximum # iterations   MaxIter         ....   125
 SCF integral mode      SCFMode         .... Direct
   Integral package                     .... SHARK and LIBINT hybrid scheme
 Reset frequency        DirectResetFreq ....    20
 Integral Threshold     Thresh          ....  2.500e-11 Eh
 Primitive CutOff       TCut            ....  2.500e-12 Eh

Convergence Tolerance:
 Convergence Check Mode ConvCheckMode   .... Total+1el-Energy
 Convergence forced     ConvForced      .... 1
 Energy Change          TolE            ....  1.000e-08 Eh
 1-El. energy change                    ....  1.000e-05 Eh
 Orbital Gradient       TolG            ....  1.000e-05
 Orbital Rotation angle TolX            ....  1.000e-05
 DIIS Error             TolErr          ....  5.000e-07

------------------------------
INITIAL GUESS: MODEL POTENTIAL
------------------------------
Loading Hartree-Fock densities                     ... done
Calculating cut-offs                               ... done
Initializing the effective Hamiltonian             ... done
Setting up the integral package (SHARK)            ... done
Starting the Coulomb interaction                   ... done (   0.0 sec)
Making the grid                                    ... done (   0.0 sec)
Mapping shells                                     ... done
Starting the XC term evaluation                    ... done (   0.0 sec)
Transforming the Hamiltonian                       ... done (   0.0 sec)
Diagonalizing the Hamiltonian                      ... done (   0.0 sec)
Back transforming the eigenvectors                 ... done (   0.0 sec)
Now organizing SCF variables                       ... done
                      ------------------
                      INITIAL GUESS DONE (   0.0 sec)
                      ------------------
             **** ENERGY FILE WAS UPDATED (dimer.en.tmp) ****
Finished Guess after   0.0 sec
Maximum memory used throughout the entire GUESS-calculation: 3.8 MB

-------------------------------------------------------------------------------------------
                                      ORCA LEAN-SCF
                              memory conserving SCF solver
-------------------------------------------------------------------------------------------

----------------------------------------D-I-I-S--------------------------------------------
Iteration    Energy (Eh)           Delta-E    RMSDP     MaxDP     DIISErr   Damp  Time(sec)
-------------------------------------------------------------------------------------------
               ***  Starting incremental Fock matrix formation  ***
    1    -199.9622118515017064     0.00e+00  4.07e-03  4.01e-02  2.13e-01  0.700   0.0
    2    -199.9839697687054354    -2.18e-02  2.74e-03  2.78e-02  1.30e-01  0.700   0.0
                               ***Turning on AO-DIIS***
    3    -199.9963002138433126    -1.23e-02  1.21e-03  1.27e-02  7.43e-02  0.700   0.0
    4    -200.0040371950167355    -7.74e-03  2.82e-03  2.87e-02  5.22e-02  0.000   0.0
    5    -200.0214349654220314    -1.74e-02  3.03e-04  2.96e-03  5.46e-03  0.000   0.0
                              *** Initializing SOSCF ***
---------------------------------------S-O-S-C-F--------------------------------------
Iteration    Energy (Eh)           Delta-E    RMSDP     MaxDP     MaxGrad    Time(sec)
--------------------------------------------------------------------------------------
    6    -200.0214949612583268    -6.00e-05  1.34e-04  1.25e-03  1.62e-03     0.0
               *** Restarting incremental Fock matrix formation ***
    7    -200.0215039002118260    -8.94e-06  5.07e-05  4.11e-04  3.66e-04     0.0
    8    -200.0215048413940053    -9.41e-07  3.41e-05  2.56e-04  1.18e-04     0.0
    9    -200.0215050150678167    -1.74e-07  5.50e-06  4.38e-05  3.70e-05     0.0
   10    -200.0215050247795148    -9.71e-09  7.54e-07  7.32e-06  4.53e-06     0.0
                 **** Energy Check signals convergence ****

               *****************************************************
               *                     SUCCESS                       *
               *           SCF CONVERGED AFTER  10 CYCLES          *
               *****************************************************

             **** ENERGY FILE WAS UPDATED (dimer.en.tmp) ****

----------------
TOTAL SCF ENERGY
----------------

Total Energy       :       -200.02150502479640 Eh           -5442.86186 eV

Components:
Nuclear Repulsion  :         32.07936209266408 Eh             872.92382 eV
Electronic Energy  :       -232.10086711746047 Eh           -6315.78568 eV
One Electron Energy:       -344.67707315864635 Eh           -9379.13999 eV
Two Electron Energy:        112.57620604118588 Eh            3063.35430 eV

Virial components:
Potential Energy   :       -400.00454171736550 Eh          -10884.67695 eV
Kinetic Energy     :        199.98303669256910 Eh            5441.81508 eV
Virial Ratio       :          2.00019235797627

---------------
SCF CONVERGENCE
---------------

  Last Energy change         ...    9.7117e-09  Tolerance :   1.0000e-08
  Last MAX-Density change    ...    7.3162e-06  Tolerance :   1.0000e-07
  Last RMS-Density change    ...    7.5394e-07  Tolerance :   5.0000e-09
  Last DIIS Error            ...    1.6151e-03  Tolerance :   5.0000e-07
  Last Orbital Gradient      ...    4.5332e-06  Tolerance :   1.0000e-05
  Last Orbital Rotation      ...    4.3370e-06  Tolerance :   1.0000e-05


----------------
ORBITAL ENERGIES
----------------

  NO   OCC          E(Eh)            E(eV) 
   0   2.0000     -26.332902      -716.5547 
   1   2.0000     -26.224606      -713.6078 
   2   2.0000      -1.635279       -44.4982 
   3   2.0000      -1.528557       -41.5941 
   4   2.0000      -0.824788       -22.4436 
   5   2.0000      -0.695758       -18.9325 
   6   2.0000      -0.686539       -18.6817 
   7   2.0000      -0.669462       -18.2170 
   8   2.0000      -0.582331       -15.8460 
   9   2.0000      -0.582108       -15.8400 
  10   0.0000       0.171000         4.6531 
  11   0.0000       0.372430        10.1343 
  12   0.0000       0.915371        24.9085 
  13   0.0000       1.039995        28.2997 
  14   0.0000       1.406583        38.2751 
  15   0.0000       1.410509        38.3819 
  16   0.0000       1.521958        41.4146 
  17   0.0000       1.539520        41.8925 
  18   0.0000       1.568595        42.6836 
  19   0.0000       1.740646        47.3654 
  20   0.0000       1.797506        48.9126 
*Only the first 10 virtual orbitals were printed.

                    ********************************
                    * MULLIKEN POPULATION ANALYSIS *
                    ********************************

-----------------------
MULLIKEN ATOMIC CHARGES
-----------------------
   0 F :   -0.414147
   1 H :    0.439905
   2 H :    0.457415
   3 F :   -0.483174
Sum of atomic charges:    0.0000000

--------------------------------
MULLIKEN REDUCED ORBITAL CHARGES
--------------------------------
  0 F s       :     3.920273  s :     3.920273
      pz      :     1.905532  p :     5.486835
      px      :     1.596899
      py      :     1.984404
      dz2     :     0.000721  d :     0.007039
      dxz     :     0.002799
      dyz     :     0.000295
      dx2y2   :     0.002416
      dxy     :     0.000809

  1 H s       :     0.505455  s :     0.505455
      pz      :     0.014327  p :     0.054640
      px      :     0.030345
      py      :     0.009969

  2 H s       :     0.487138  s :     0.487138
      pz      :     0.014271  p :     0.055447
      px      :     0.031028
      py      :     0.010148

  3 F s       :     3.928307  s :     3.928307
      pz      :     1.900126  p :     5.545473
      px      :     1.664428
      py      :     1.980919
      dz2     :     0.000901  d :     0.009393
      dxz     :     0.003673
      dyz     :     0.000347
      dx2y2   :     0.003230
      dxy     :     0.001242



                     *******************************
                     * LOEWDIN POPULATION ANALYSIS *
                     *******************************

----------------------
LOEWDIN ATOMIC CHARGES
----------------------
   0 F :   -0.176793
   1 H :    0.242319
   2 H :    0.188310
   3 F :   -0.253836

-------------------------------
LOEWDIN REDUCED ORBITAL CHARGES
-------------------------------
  0 F s       :     3.731816  s :     3.731816
      pz      :     1.889196  p :     5.432475
      px      :     1.578623
      py      :     1.964655
      dz2     :     0.001021  d :     0.012503
      dxz     :     0.004881
      dyz     :     0.000173
      dx2y2   :     0.005934
      dxy     :     0.000494

  1 H s       :     0.606179  s :     0.606179
      pz      :     0.040980  p :     0.151502
      px      :     0.079991
      py      :     0.030531

  2 H s       :     0.638272  s :     0.638272
      pz      :     0.044898  p :     0.173418
      px      :     0.096234
      py      :     0.032285

  3 F s       :     3.750345  s :     3.750345
      pz      :     1.883448  p :     5.491971
      px      :     1.647409
      py      :     1.961114
      dz2     :     0.000669  d :     0.011520
      dxz     :     0.005109
      dyz     :     0.000222
      dx2y2   :     0.004702
      dxy     :     0.000818



                      *****************************
                      * MAYER POPULATION ANALYSIS *
                      *****************************

  NA   - Mulliken gross atomic population
  ZA   - Total nuclear charge
  QA   - Mulliken gross atomic charge
  VA   - Mayer's total valence
  BVA  - Mayer's bonded valence
  FA   - Mayer's free valence

  ATOM       NA         ZA         QA         VA         BVA        FA
  0 F      9.4141     9.0000    -0.4141     0.8598     0.8598     0.0000
  1 H      0.5601     1.0000     0.4399     0.8135     0.8135    -0.0000
  2 H      0.5426     1.0000     0.4574     0.8124     0.8124     0.0000
  3 F      9.4832     9.0000    -0.4832     0.7678     0.7678     0.0000

  Mayer bond orders larger than 0.100000
B(  0-F ,  1-H ) :   0.8037 B(  2-H ,  3-F ) :   0.7572 

-------
TIMINGS
-------

Total SCF time: 0 days 0 hours 0 min 0 sec 

Total time                  ....       0.100 sec
Sum of individual times     ....       0.090 sec  ( 89.6%)

SCF preparation             ....       0.011 sec  ( 11.3%)
Fock matrix formation       ....       0.074 sec  ( 74.4%)
  Startup                   ....       0.000 sec  (  0.2% of F)
  Coulomb+Exchange Fock     ....       0.080 sec  (107.2% of F)
Diagonalization             ....       0.000 sec  (  0.0%)
Density matrix formation    ....       0.001 sec  (  0.7%)
Total Energy calculation    ....       0.000 sec  (  0.1%)
Population analysis         ....       0.001 sec  (  0.6%)
Orbital Transformation      ....       0.000 sec  (  0.3%)
Orbital Orthonormalization  ....       0.000 sec  (  0.0%)
DIIS solution               ....       0.002 sec  (  1.5%)
SOSCF solution              ....       0.001 sec  (  0.7%)
Finished LeanSCF after   0.1 sec

Maximum memory used throughout the entire LEANSCF-calculation: 7.3 MB

------------------------------------------------------------------------------
                                ORCA  MP2 
------------------------------------------------------------------------------

Freezing NCore=4 chemical core electrons
MP2 will be done in the AO integral direct mode
The Q1-step will be done using symmetric double matrices
Dimension of the basis                    ...   38
Memory devoted for MP2                    ... 4096 MB   
Memory needed for all in one shot         ...    3 MB
Number of MOs that can be treated together... 19065      
MP2 density construction                  ... relaxed
The MP2 gradient is requested => amplitudes will be stored on disk
Total number of MOs              ...    8
Number of MOs treated per batch  ...    8 
Number of batches necessary      ...    1 
OPERATORS   0/  0 PASS   0
-----------------------------------------------
 MP2 CORRELATION ENERGY   :     -0.368493671 Eh
-----------------------------------------------


---------------------
MP2 DENSITY FORMATION
---------------------

Completing the external part of the density      ... done
Storing the unrelaxed density                    ... done

Calculating G(D)                                 ... done
Completing the Lagrangian                        ... done
Solving the Z-vector equations                   ... 
-------------------
SHARK CP-SCF DRIVER
-------------------

Dimension of the orbital basis          ...     38
Dimension of the CPSCF-problem          ...    280
Number of operators                     ...      1
Max. number of iterations               ...    128
Convergence Tolerance                   ... 1.0e-04
Number of perturbations                 ...      1
Perturbation type                       ... REAL

----------------------------
POPLE LINEAR EQUATION SOLVER
----------------------------

  ITERATION   0:   ||err||_max =   4.2428e-02 (   0.0 sec)
  ITERATION   1:   ||err||_max =   3.0222e-03 (   0.0 sec)
  ITERATION   2:   ||err||_max =   4.6171e-04 (   0.0 sec)
  ITERATION   3:   ||err||_max =   1.5726e-04 (   0.0 sec)
  ITERATION   4:   ||err||_max =   3.8523e-05 (   0.0 sec)
                                                 ... done
Finalizing the relaxed density                   ... done
Transforming P to the AO basis                   ... done
Storing the relaxed density                      ... done

------------------------------------
ENERGY WEIGHTED DENSITY FINALIZATION
------------------------------------

Gathering the parts of the W-matrix              ...                                                      done
Forming the Z-density                            ... done
Transforming Z to the AO basis                   ... done
Calculating G(Z)                                 ... done
Finalizing the W-matrix                          ...                                                      done
Transforming W to the AO basis and storing       ... done

                *********************************************
                * UNRELAXED MP2 DENSITY POPULATION ANALYSIS *
                *********************************************

------------------------------------------------------------------------------
                           ORCA POPULATION ANALYSIS
------------------------------------------------------------------------------
Input electron density              ... dimer.pmp2ur
BaseName (.gbw .S,...)              ... dimer

                    ********************************
                    * MULLIKEN POPULATION ANALYSIS *
                    ********************************

-----------------------
MULLIKEN ATOMIC CHARGES
-----------------------
   0 F :   -0.410232
   1 H :    0.436316
   2 H :    0.453297
   3 F :   -0.479381
Sum of atomic charges:    0.0000000

--------------------------------
MULLIKEN REDUCED ORBITAL CHARGES
--------------------------------
  0 F s       :     3.918800  s :     3.918800
      pz      :     1.898616  p :     5.465862
      px      :     1.589638
      py      :     1.977607
      dz2     :     0.004370  d :     0.025571
      dxz     :     0.006583
      dyz     :     0.003827
      dx2y2   :     0.006236
      dxy     :     0.004555
  1 H s       :     0.508167  s :     0.508167
      pz      :     0.014737  p :     0.055517
      px      :     0.030272
      py      :     0.010509
  2 H s       :     0.490228  s :     0.490228
      pz      :     0.014720  p :     0.056474
      px      :     0.031025
      py      :     0.010729
  3 F s       :     3.927064  s :     3.927064
      pz      :     1.893231  p :     5.524580
      px      :     1.657166
      py      :     1.974183
      dz2     :     0.004548  d :     0.027737
      dxz     :     0.007394
      dyz     :     0.003922
      dx2y2   :     0.006926
      dxy     :     0.004947


                     *******************************
                     * LOEWDIN POPULATION ANALYSIS *
                     *******************************

----------------------
LOEWDIN ATOMIC CHARGES
----------------------
   0 F :   -0.172661
   1 H :    0.238897
   2 H :    0.184255
   3 F :   -0.250491

-------------------------------
LOEWDIN REDUCED ORBITAL CHARGES
-------------------------------
  0 F s       :     3.730279  s :     3.730279
      pz      :     1.882272  p :     5.411251
      px      :     1.571146
      py      :     1.957833
      dz2     :     0.004613  d :     0.031131
      dxz     :     0.008801
      dyz     :     0.003678
      dx2y2   :     0.009919
      dxy     :     0.004120
  1 H s       :     0.607693  s :     0.607693
      pz      :     0.041668  p :     0.153409
      px      :     0.080489
      py      :     0.031253
  2 H s       :     0.640315  s :     0.640315
      pz      :     0.045619  p :     0.175430
      px      :     0.096754
      py      :     0.033057
  3 F s       :     3.749084  s :     3.749084
      pz      :     1.876619  p :     5.471367
      px      :     1.640369
      py      :     1.954379
      dz2     :     0.004256  d :     0.030040
      dxz     :     0.009010
      dyz     :     0.003770
      dx2y2   :     0.008580
      dxy     :     0.004425


                      *****************************
                      * MAYER POPULATION ANALYSIS *
                      *****************************

  NA   - Mulliken gross atomic population
  ZA   - Total nuclear charge
  QA   - Mulliken gross atomic charge
  VA   - Mayer's total valence
  BVA  - Mayer's bonded valence
  FA   - Mayer's free valence

  ATOM       NA         ZA         QA         VA         BVA        FA
  0 F      9.4102     9.0000    -0.4102     1.1136     0.8279     0.2858
  1 H      0.5637     1.0000     0.4363     0.8198     0.7830     0.0368
  2 H      0.5467     1.0000     0.4533     0.8191     0.7842     0.0350
  3 F      9.4794     9.0000    -0.4794     1.0237     0.7397     0.2840

  Mayer bond orders larger than 0.100000
B(  0-F ,  1-H ) :   0.7736 B(  2-H ,  3-F ) :   0.7301 


                *******************************************
                * RELAXED MP2 DENSITY POPULATION ANALYSIS *
                *******************************************

------------------------------------------------------------------------------
                           ORCA POPULATION ANALYSIS
------------------------------------------------------------------------------
Input electron density              ... dimer.pmp2re
BaseName (.gbw .S,...)              ... dimer

                    ********************************
                    * MULLIKEN POPULATION ANALYSIS *
                    ********************************

-----------------------
MULLIKEN ATOMIC CHARGES
-----------------------
   0 F :   -0.381498
   1 H :    0.415433
   2 H :    0.421877
   3 F :   -0.455811
Sum of atomic charges:    0.0000000

--------------------------------
MULLIKEN REDUCED ORBITAL CHARGES
--------------------------------
  0 F s       :     3.915687  s :     3.915687
      pz      :     1.894311  p :     5.440321
      px      :     1.569580
      py      :     1.976430
      dz2     :     0.004411  d :     0.025491
      dxz     :     0.006447
      dyz     :     0.003838
      dx2y2   :     0.006193
      dxy     :     0.004601
  1 H s       :     0.530003  s :     0.530003
      pz      :     0.015008  p :     0.054564
      px      :     0.028188
      py      :     0.011367
  2 H s       :     0.522454  s :     0.522454
      pz      :     0.014961  p :     0.055669
      px      :     0.029069
      py      :     0.011639
  3 F s       :     3.922143  s :     3.922143
      pz      :     1.888563  p :     5.506079
      px      :     1.644689
      py      :     1.972827
      dz2     :     0.004573  d :     0.027589
      dxz     :     0.007272
      dyz     :     0.003930
      dx2y2   :     0.006835
      dxy     :     0.004980


                     *******************************
                     * LOEWDIN POPULATION ANALYSIS *
                     *******************************

----------------------
LOEWDIN ATOMIC CHARGES
----------------------
   0 F :   -0.160073
   1 H :    0.229765
   2 H :    0.170716
   3 F :   -0.240408

-------------------------------
LOEWDIN REDUCED ORBITAL CHARGES
-------------------------------
  0 F s       :     3.730236  s :     3.730236
      pz      :     1.879525  p :     5.398182
      px      :     1.562066
      py      :     1.956591
      dz2     :     0.004688  d :     0.031655
      dxz     :     0.008931
      dyz     :     0.003687
      dx2y2   :     0.010190
      dxy     :     0.004159
  1 H s       :     0.618218  s :     0.618218
      pz      :     0.041935  p :     0.152017
      px      :     0.077797
      py      :     0.032284
  2 H s       :     0.654890  s :     0.654890
      pz      :     0.045961  p :     0.174394
      px      :     0.094309
      py      :     0.034124
  3 F s       :     3.749396  s :     3.749396
      pz      :     1.873838  p :     5.460549
      px      :     1.633630
      py      :     1.953081
      dz2     :     0.004293  d :     0.030463
      dxz     :     0.009171
      dyz     :     0.003780
      dx2y2   :     0.008752
      dxy     :     0.004467


                      *****************************
                      * MAYER POPULATION ANALYSIS *
                      *****************************

  NA   - Mulliken gross atomic population
  ZA   - Total nuclear charge
  QA   - Mulliken gross atomic charge
  VA   - Mayer's total valence
  BVA  - Mayer's bonded valence
  FA   - Mayer's free valence

  ATOM       NA         ZA         QA         VA         BVA        FA
  0 F      9.3815     9.0000    -0.3815     1.1478     0.8639     0.2839
  1 H      0.5846     1.0000     0.4154     0.8398     0.8033     0.0365
  2 H      0.5781     1.0000     0.4219     0.8566     0.8221     0.0345
  3 F      9.4558     9.0000    -0.4558     1.0478     0.7652     0.2825

  Mayer bond orders larger than 0.100000
B(  0-F ,  1-H ) :   0.7918 B(  2-H ,  3-F ) :   0.7519 


----------------------------------
MP2 DERIVATIVE INTEGRAL GENERATION
----------------------------------

Input SCF Electron Density              ... dimer.scfp
Input Correlated Electron Density       ... dimer.pmp2re
Input Energy Weighted Density           ... dimer.wmp2.tmp
Input Wavefunction Amplitudes           ... dimer.mp2tsaa.tmp

Nuclear repulsion gradient              ... done (  0.0 sec)
HCore & Overlap gradient  (SHARK)       ... done (  0.0 sec)
Analytic two-electron gradient terms    ... 
  Batch handling in the gradient evaluation:
  General contraction                   ... not used
  Memory available                      ... 4094.2 MB
  Memory per occupied orbital in Q2     ...    0.1 MB
  Memory per occupied orbital in Q3     ...    0.0 MB
  Total memory requirement per |i>      ...    0.1 MB
  Number of orbitals treated per batch  ...      8
  Number of batches to be done          ...      1
done (  0.1 sec)

---------------------------------------
MP2 TOTAL ENERGY:     -200.389998696 Eh
---------------------------------------

The final MP2 gradient
  0:  -0.02930381   0.00212677  -0.00764426
  1:   0.01715874  -0.00143945   0.00583586
  2:   0.02058713  -0.00284557   0.00889022
  3:  -0.00844206   0.00215825  -0.00708181

-----------------------------------
NORM OF THE MP2 GRADIENT:  0.043466
-----------------------------------

Maximum memory used throughout the entire MP2-calculation: 14.0 MB

-------------------------   --------------------
FINAL SINGLE POINT ENERGY      -200.389998696101
-------------------------   --------------------

------------------------------------------------------------------------------
                         ORCA GEOMETRY RELAXATION STEP
------------------------------------------------------------------------------

Reading the OPT-File                    .... done
Getting information on internals        .... done
Copying old internal coords+grads       .... done
Making the new internal coordinates     .... (2022 redundants) done
Validating the new internal coordinates .... (2022 redundants) done
Calculating the B-matrix                .... done
Calculating the G,G- and P matrices     .... done
Transforming gradient to internals      .... done
Projecting the internal gradient        .... done
Number of atoms                         ....   4
Number of internal coordinates          ....   6
Current Energy                          ....  -200.389998696 Eh
Current gradient norm                   ....     0.043465668 Eh/bohr
Maximum allowed component of the step   ....  0.300
Current trust radius                    ....  0.300
Evaluating the initial hessian          ....  (Almloef) done
Projecting the Hessian                  .... done
Forming the augmented Hessian           .... done
Diagonalizing the augmented Hessian     .... done
Last element of RFO vector              ....  0.974240713
Lowest eigenvalues of augmented Hessian:
 -0.003787374  0.010000024  0.053277316  0.224264798  0.224422322
Length of the computed step             ....  0.231473189
The final length of the internal step   ....  0.231473189
Converting the step to Cartesian space:
 Initial RMS(Int)=    0.0944985336
Transforming coordinates:
 Iter   0:  RMS(Cart)=    0.0588365765 RMS(Int)=    0.0945096220
done
Storing new coordinates                 .... done

                                .--------------------.
          ----------------------|Geometry convergence|-------------------------
          Item                value                   Tolerance       Converged
          ---------------------------------------------------------------------
          RMS gradient        0.0102629351            0.0001000000      NO
          MAX gradient        0.0180590896            0.0003000000      NO
          RMS step            0.0944985336            0.0020000000      NO
          MAX step            0.2264555128            0.0040000000      NO
          -------------------------------------------------------------------------
          ........................................................
          Max(Bonds)      0.1198      Max(Angles)    1.17
          Max(Dihed)        0.08      Max(Improp)    0.00
          ---------------------------------------------------------------------

The optimization has not yet converged - more geometry cycles are needed


    ---------------------------------------------------------------------------
                         Redundant Internal Coordinates
                            (Angstroem and degrees)

        Definition                    Value    dE/dq     Step     New-Value
    ----------------------------------------------------------------------------
     1. B(H   1,F   0)                0.9392  0.018059 -0.0182    0.9210   
     2. B(H   2,F   0)                1.5747 -0.012294  0.1198    1.6946   
     3. B(F   3,H   2)                0.9392  0.010920 -0.0110    0.9282   
     4. A(H   1,F   0,H   2)          161.62  0.003731   -0.94    160.68   
     5. A(F   0,H   2,F   3)          159.81 -0.004641    1.17    160.98   
     6. D(F   3,H   2,F   0,H   1)    175.29 -0.000019    0.08    175.37   
    ----------------------------------------------------------------------------

Geometry step timings:
Preparation and reading OPT file:      0.000 s ( 5.063 %)
Internal coordinates            :      0.000 s ( 4.219 %)
B/P matrices and projection     :      0.000 s (20.253 %)
Hessian update/contruction      :      0.000 s (13.080 %)
Making the step                 :      0.000 s (15.190 %)
Converting the step to Cartesian:      0.000 s ( 6.751 %)
Storing new data                :      0.000 s ( 3.797 %)
Checking convergence            :      0.000 s ( 6.751 %)
Final printing                  :      0.000 s (24.895 %)
Total time                      :      0.000 s

Time for energy+gradient        :      0.410 s
Time for complete geometry iter :      0.418 s

         *************************************************************
         *                GEOMETRY OPTIMIZATION CYCLE   2            *
         *************************************************************
---------------------------------
CARTESIAN COORDINATES (ANGSTROEM)
---------------------------------
  F     -1.382423    2.406183    0.115235
  H     -0.563857    2.308195    0.525824
  H     -3.060513    2.479865   -0.108664
  F     -3.887413    2.601523   -0.512364

----------------------------
CARTESIAN COORDINATES (A.U.)
----------------------------
  NO LB      ZA    FRAG     MASS         X           Y           Z
   0 F     9.0000    0    18.998   -2.612401    4.547028    0.217762
   1 H     1.0000    0     1.008   -1.065535    4.361856    0.993663
   2 H     1.0000    0     1.008   -5.783531    4.686266   -0.205345
   3 F     9.0000    0    18.998   -7.346145    4.916167   -0.968228

--------------------------------
INTERNAL COORDINATES (ANGSTROEM)
--------------------------------
 F      0   0   0     0.000000000000     0.00000000     0.00000000
 H      1   0   0     0.920997242063     0.00000000     0.00000000
 H      1   2   0     1.694563101615   160.67772291     0.00000000
 F      3   1   2     0.928190811091   160.97528307   175.36777750

---------------------------
INTERNAL COORDINATES (A.U.)
---------------------------
 F      0   0   0     0.000000000000     0.00000000     0.00000000
 H      1   0   0     1.740432557596     0.00000000     0.00000000
 H      1   2   0     3.202260178700   160.67772291     0.00000000
 F      3   1   2     1.754026432984   160.97528307   175.36777750

------------------------------------------------------------------------------
                   ___                                                        
                  /   \      - P O W E R E D   B Y -                         
                 /     \                                                     
                 |  |  |   _    _      __       _____    __    __             
                 |  |  |  | |  | |    /  \     |  _  \  |  |  /  |          
                  \  \/   | |  | |   /    \    | | | |  |  | /  /          
                 / \  \   | |__| |  /  /\  \   | |_| |  |  |/  /          
                |  |  |   |  __  | /  /__\  \  |    /   |      \           
                |  |  |   | |  | | |   __   |  |    \   |  |\   \          
                \     /   | |  | | |  |  |  |  | |\  \  |  | \   \       
                 \___/    |_|  |_| |__|  |__|  |_| \__\ |__|  \__/        
                                                                              
                      - O R C A' S   B I G   F R I E N D -                    
                                      &                                       
                       - I N T E G R A L  F E E D E R -                       
                                                                              
 v1 FN, 2020, v2 2021, v3 2022-2024                                           
------------------------------------------------------------------------------


----------------------
SHARK INTEGRAL PACKAGE
----------------------

Number of atoms                             ...      4
Number of basis functions                   ...     38
Number of shells                            ...     18
Maximum angular momentum                    ...      2
Integral batch strategy                     ... SHARK/LIBINT Hybrid
RI-J (if used) integral strategy            ... SPLIT-RIJ (Revised 2003 algorithm where possible)
Printlevel                                  ...      1
Contraction scheme used                     ... SEGMENTED contraction
Prescreening option                         ... SCHWARTZ
   Thresh                                   ... 2.500e-11
   Tcut                                     ... 2.500e-12
   Tpresel                                  ... 2.500e-12 
Coulomb Range Separation                    ... NOT USED
Exchange Range Separation                   ... NOT USED
Multipole approximations                    ... NOT USED
Finite Nucleus Model                        ... NOT USED
CABS basis                                  ... NOT available
Auxiliary Coulomb fitting basis             ... NOT available
Auxiliary J/K fitting basis                 ... NOT available
Auxiliary Correlation fitting basis         ... NOT available
Auxiliary 'external' fitting basis          ... NOT available

Checking pre-screening integrals            ... done (  0.0 sec) Dimension = 18
   => SHARK Basis and OBASIS are compatible. Storing Pre-screening
Shell pair information
Shell pair cut-off parameter TPreSel        ...   2.5e-12
Total number of shell pairs                 ...       171
Shell pairs after pre-screening             ...       166
Total number of primitive shell pairs       ...       868
Primitive shell pairs kept                  ...       673
          la=0 lb=0:     51 shell pairs
          la=1 lb=0:     59 shell pairs
          la=1 lb=1:     21 shell pairs
          la=2 lb=0:     20 shell pairs
          la=2 lb=1:     12 shell pairs
          la=2 lb=2:      3 shell pairs

Checking whether 4 symmetric matrices of dimension 38 fit in memory
:Max Core in MB      =   4096.00
 MB in use           =      1.41
 MB left             =   4094.59
 MB needed           =      0.02
 Data fit in memory  = YES
Calculating Nuclear repulsion               ... done (  0.0 sec) ENN=     31.231539974957 Eh

Diagonalization of the overlap matrix:
Smallest eigenvalue                        ... 3.767e-02
Time for diagonalization                   ...    0.000 sec
Threshold for overlap eigenvalues          ... 1.000e-07
Number of eigenvalues below threshold      ... 0
Time for construction of square roots      ...    0.000 sec
Total time needed                          ...    0.000 sec

-------------------
DFT GRID GENERATION
-------------------

General Integration Accuracy     IntAcc      ... 4.388
Radial Grid Type                 RadialGrid  ... OptM3 with GC (2021)
Angular Grid (max. ang.)         AngularGrid ... 4 (Lebedev-302)
Angular grid pruning method      GridPruning ... 4 (adaptive)
Weight generation scheme         WeightScheme... mBecke (2022)
Basis function cutoff            BFCut       ... 1.0000e-11
Integration weight cutoff        WCut        ... 1.0000e-14
Partially contracted basis set               ... off
Rotationally invariant grid construction     ... off
Angular grids for H and He will be reduced by one unit

Total number of grid points                  ...    18884
Total number of batches                      ...      296
Average number of points per batch           ...       63
Average number of grid points per atom       ...     4721
Grids setup in   0.0 sec
Initializing property integral containers    ... done (  0.0 sec)

SHARK setup successfully completed in   0.1 seconds

Maximum memory used throughout the entire STARTUP-calculation: 7.7 MB
Occupation numbers will be reassigned to an Aufbau configuration
             **** ENERGY FILE WAS UPDATED (dimer.en.tmp) ****
Finished Guess after   0.0 sec
Maximum memory used throughout the entire GUESS-calculation: 3.8 MB
----------------------------------------D-I-I-S--------------------------------------------
Iteration    Energy (Eh)           Delta-E    RMSDP     MaxDP     DIISErr   Damp  Time(sec)
-------------------------------------------------------------------------------------------
               ***  Starting incremental Fock matrix formation  ***
    1    -200.0252471840670125     0.00e+00  3.03e-04  2.31e-03  1.05e-02  0.700   0.0
    2    -200.0253800098416264    -1.33e-04  2.55e-04  1.94e-03  8.28e-03  0.700   0.0
                               ***Turning on AO-DIIS***
    3    -200.0254828624778725    -1.03e-04  2.22e-04  1.69e-03  6.34e-03  0.700   0.0
    4    -200.0255603375023270    -7.75e-05  5.70e-04  4.30e-03  4.63e-03  0.000   0.0
                              *** Initializing SOSCF ***
---------------------------------------S-O-S-C-F--------------------------------------
Iteration    Energy (Eh)           Delta-E    RMSDP     MaxDP     MaxGrad    Time(sec)
--------------------------------------------------------------------------------------
    5    -200.0257696194829293    -2.09e-04  5.07e-05  3.97e-04  4.81e-04     0.0
               *** Restarting incremental Fock matrix formation ***
    6    -200.0257709691023820    -1.35e-06  2.81e-05  2.24e-04  1.74e-04     0.0
    7    -200.0257712972845070    -3.28e-07  2.47e-05  2.03e-04  7.91e-05     0.0
    8    -200.0257713879466621    -9.07e-08  2.77e-06  3.02e-05  2.68e-05     0.0
    9    -200.0257713896144196    -1.67e-09  8.07e-07  9.74e-06  8.57e-06     0.0
                 **** Energy Check signals convergence ****

               *****************************************************
               *                     SUCCESS                       *
               *           SCF CONVERGED AFTER   9 CYCLES          *
               *****************************************************

             **** ENERGY FILE WAS UPDATED (dimer.en.tmp) ****

----------------
TOTAL SCF ENERGY
----------------

Total Energy       :       -200.02577138995852 Eh           -5442.97796 eV

Components:
Nuclear Repulsion  :         31.23153997495748 Eh             849.85341 eV
Electronic Energy  :       -231.25731136491601 Eh           -6292.83136 eV
One Electron Energy:       -342.94930678672199 Eh           -9332.12507 eV
Two Electron Energy:        111.69199542180598 Eh            3039.29371 eV

Virial components:
Potential Energy   :       -400.03860391607350 Eh          -10885.60383 eV
Kinetic Energy     :        200.01283252611495 Eh            5442.62587 eV
Virial Ratio       :          2.00006469016853

---------------
SCF CONVERGENCE
---------------

  Last Energy change         ...    1.6678e-09  Tolerance :   1.0000e-08
  Last MAX-Density change    ...    9.7411e-06  Tolerance :   1.0000e-07
  Last RMS-Density change    ...    8.0685e-07  Tolerance :   5.0000e-09
  Last DIIS Error            ...    4.8079e-04  Tolerance :   5.0000e-07
  Last Orbital Gradient      ...    8.5747e-06  Tolerance :   1.0000e-05
  Last Orbital Rotation      ...    3.4357e-06  Tolerance :   1.0000e-05


Total SCF time: 0 days 0 hours 0 min 0 sec 
Finished LeanSCF after   0.1 sec

Maximum memory used throughout the entire LEANSCF-calculation: 7.3 MB

------------------------------------------------------------------------------
                                ORCA  MP2 
------------------------------------------------------------------------------

Freezing NCore=4 chemical core electrons
MP2 will be done in the AO integral direct mode
The Q1-step will be done using symmetric double matrices
Dimension of the basis                    ...   38
Memory devoted for MP2                    ... 4096 MB   
Memory needed for all in one shot         ...    3 MB
Number of MOs that can be treated together... 19065      
MP2 density construction                  ... relaxed
The MP2 gradient is requested => amplitudes will be stored on disk
Total number of MOs              ...    8
Number of MOs treated per batch  ...    8 
Number of batches necessary      ...    1 
OPERATORS   0/  0 PASS   0
-----------------------------------------------
 MP2 CORRELATION ENERGY   :     -0.366694714 Eh
-----------------------------------------------


---------------------
MP2 DENSITY FORMATION
---------------------

Completing the external part of the density      ... done
Storing the unrelaxed density                    ... done

Calculating G(D)                                 ... done
Completing the Lagrangian                        ... done
Solving the Z-vector equations                   ... 
-------------------
SHARK CP-SCF DRIVER
-------------------

Dimension of the orbital basis          ...     38
Dimension of the CPSCF-problem          ...    280
Number of operators                     ...      1
Max. number of iterations               ...    128
Convergence Tolerance                   ... 1.0e-04
Number of perturbations                 ...      1
Perturbation type                       ... REAL

----------------------------
POPLE LINEAR EQUATION SOLVER
----------------------------

  ITERATION   0:   ||err||_max =   4.1936e-02 (   0.0 sec)
  ITERATION   1:   ||err||_max =   2.9415e-03 (   0.0 sec)
  ITERATION   2:   ||err||_max =   3.9838e-04 (   0.0 sec)
  ITERATION   3:   ||err||_max =   1.4647e-04 (   0.0 sec)
  ITERATION   4:   ||err||_max =   3.6102e-05 (   0.0 sec)
                                                 ... done
Finalizing the relaxed density                   ... done
Transforming P to the AO basis                   ... done
Storing the relaxed density                      ... done

------------------------------------
ENERGY WEIGHTED DENSITY FINALIZATION
------------------------------------

Gathering the parts of the W-matrix              ...                                                      done
Forming the Z-density                            ... done
Transforming Z to the AO basis                   ... done
Calculating G(Z)                                 ... done
Finalizing the W-matrix                          ...                                                      done
Transforming W to the AO basis and storing       ... done

----------------------------------
MP2 DERIVATIVE INTEGRAL GENERATION
----------------------------------

Input SCF Electron Density              ... dimer.scfp
Input Correlated Electron Density       ... dimer.pmp2re
Input Energy Weighted Density           ... dimer.wmp2.tmp
Input Wavefunction Amplitudes           ... dimer.mp2tsaa.tmp

Nuclear repulsion gradient              ... done (  0.0 sec)
HCore & Overlap gradient  (SHARK)       ... done (  0.0 sec)
Analytic two-electron gradient terms    ... 
  Batch handling in the gradient evaluation:
  General contraction                   ... not used
  Memory available                      ... 4094.2 MB
  Memory per occupied orbital in Q2     ...    0.1 MB
  Memory per occupied orbital in Q3     ...    0.0 MB
  Total memory requirement per |i>      ...    0.1 MB
  Number of orbitals treated per batch  ...      8
  Number of batches to be done          ...      1
done (  0.1 sec)

---------------------------------------
MP2 TOTAL ENERGY:     -200.392466104 Eh
---------------------------------------

The final MP2 gradient
  0:  -0.00411702  -0.00023947   0.00179742
  1:  -0.00095955   0.00053833  -0.00245330
  2:   0.00654845  -0.00108907   0.00328415
  3:  -0.00147188   0.00079021  -0.00262828

-----------------------------------
NORM OF THE MP2 GRADIENT:  0.009593
-----------------------------------

Maximum memory used throughout the entire MP2-calculation: 14.1 MB

-------------------------   --------------------
FINAL SINGLE POINT ENERGY      -200.392466103576
-------------------------   --------------------

------------------------------------------------------------------------------
                         ORCA GEOMETRY RELAXATION STEP
------------------------------------------------------------------------------

Reading the OPT-File                    .... done
Getting information on internals        .... done
Copying old internal coords+grads       .... done
Making the new internal coordinates     .... (2022 redundants) done
Validating the new internal coordinates .... (2022 redundants) done
Calculating the B-matrix                .... done
Calculating the G,G- and P matrices     .... done
Transforming gradient to internals      .... done
Projecting the internal gradient        .... done
Number of atoms                         ....   4
Number of internal coordinates          ....   6
Current Energy                          ....  -200.392466104 Eh
Current gradient norm                   ....     0.009592698 Eh/bohr
Maximum allowed component of the step   ....  0.300
Current trust radius                    ....  0.300
Updating the Hessian (BFGS)             .... done
Forming the augmented Hessian           .... done
Diagonalizing the augmented Hessian     .... done
Last element of RFO vector              ....  0.986837701
Lowest eigenvalues of augmented Hessian:
 -0.000989674  0.009999981  0.033820556  0.215684389  0.224340257
Length of the computed step             ....  0.163870713
The final length of the internal step   ....  0.163870713
Converting the step to Cartesian space:
 Initial RMS(Int)=    0.0668999383
Transforming coordinates:
 Iter   0:  RMS(Cart)=    0.0465355318 RMS(Int)=    0.0669109084
done
Storing new coordinates                 .... done
The predicted energy change is          ....    -0.000508125
Previously predicted energy change      ....    -0.001995151
Actually observed energy change         ....    -0.002467407
Ratio of predicted to observed change   ....     1.236702396
New trust radius                        ....     0.450000000

                                .--------------------.
          ----------------------|Geometry convergence|-------------------------
          Item                value                   Tolerance       Converged
          ---------------------------------------------------------------------
          Energy change      -0.0024674075            0.0000050000      NO
          RMS gradient        0.0030628155            0.0001000000      NO
          MAX gradient        0.0051268349            0.0003000000      NO
          RMS step            0.0668999383            0.0020000000      NO
          MAX step            0.1605748568            0.0040000000      NO
          -------------------------------------------------------------------------
          ........................................................
          Max(Bonds)      0.0850      Max(Angles)    1.28
          Max(Dihed)        0.07      Max(Improp)    0.00
          ---------------------------------------------------------------------

The optimization has not yet converged - more geometry cycles are needed


    ---------------------------------------------------------------------------
                         Redundant Internal Coordinates
                            (Angstroem and degrees)

        Definition                    Value    dE/dq     Step     New-Value
    ----------------------------------------------------------------------------
     1. B(H   1,F   0)                0.9210 -0.002004  0.0014    0.9224   
     2. B(H   2,F   0)                1.6946 -0.005127  0.0850    1.7795   
     3. B(F   3,H   2)                0.9282  0.002558 -0.0048    0.9234   
     4. A(H   1,F   0,H   2)          160.68  0.003120   -1.26    159.42   
     5. A(F   0,H   2,F   3)          160.98 -0.003115    1.28    162.25   
     6. D(F   3,H   2,F   0,H   1)    175.37 -0.000010    0.07    175.44   
    ----------------------------------------------------------------------------

Geometry step timings:
Preparation and reading OPT file:      0.000 s ( 3.279 %)
Internal coordinates            :      0.000 s ( 4.098 %)
B/P matrices and projection     :      0.000 s (18.443 %)
Hessian update/contruction      :      0.000 s (25.410 %)
Making the step                 :      0.000 s (18.443 %)
Converting the step to Cartesian:      0.000 s ( 4.508 %)
Storing new data                :      0.000 s ( 3.689 %)
Checking convergence            :      0.000 s ( 8.197 %)
Final printing                  :      0.000 s (13.934 %)
Total time                      :      0.000 s

Time for energy+gradient        :      0.364 s
Time for complete geometry iter :      0.373 s

         *************************************************************
         *                GEOMETRY OPTIMIZATION CYCLE   3            *
         *************************************************************
---------------------------------
CARTESIAN COORDINATES (ANGSTROEM)
---------------------------------
  F     -1.337506    2.405123    0.114235
  H     -0.528739    2.303216    0.545822
  H     -3.098837    2.485657   -0.126542
  F     -3.929122    2.601770   -0.513484

----------------------------
CARTESIAN COORDINATES (A.U.)
----------------------------
  NO LB      ZA    FRAG     MASS         X           Y           Z
   0 F     9.0000    0    18.998   -2.527520    4.545024    0.215873
   1 H     1.0000    0     1.008   -0.999173    4.352448    1.031454
   2 H     1.0000    0     1.008   -5.855954    4.697212   -0.239130
   3 F     9.0000    0    18.998   -7.424965    4.916633   -0.970345

--------------------------------
INTERNAL COORDINATES (ANGSTROEM)
--------------------------------
 F      0   0   0     0.000000000000     0.00000000     0.00000000
 H      1   0   0     0.922364139495     0.00000000     0.00000000
 H      1   2   0     1.779535656041   159.41984865     0.00000000
 F      3   1   2     0.923352511529   162.25078008   175.43790372

---------------------------
INTERNAL COORDINATES (A.U.)
---------------------------
 F      0   0   0     0.000000000000     0.00000000     0.00000000
 H      1   0   0     1.743015619395     0.00000000     0.00000000
 H      1   2   0     3.362835035466   159.41984865     0.00000000
 F      3   1   2     1.744883371858   162.25078008   175.43790372

------------------------------------------------------------------------------
                   ___                                                        
                  /   \      - P O W E R E D   B Y -                         
                 /     \                                                     
                 |  |  |   _    _      __       _____    __    __             
                 |  |  |  | |  | |    /  \     |  _  \  |  |  /  |          
                  \  \/   | |  | |   /    \    | | | |  |  | /  /          
                 / \  \   | |__| |  /  /\  \   | |_| |  |  |/  /          
                |  |  |   |  __  | /  /__\  \  |    /   |      \           
                |  |  |   | |  | | |   __   |  |    \   |  |\   \          
                \     /   | |  | | |  |  |  |  | |\  \  |  | \   \       
                 \___/    |_|  |_| |__|  |__|  |_| \__\ |__|  \__/        
                                                                              
                      - O R C A' S   B I G   F R I E N D -                    
                                      &                                       
                       - I N T E G R A L  F E E D E R -                       
                                                                              
 v1 FN, 2020, v2 2021, v3 2022-2024                                           
------------------------------------------------------------------------------


----------------------
SHARK INTEGRAL PACKAGE
----------------------

Number of atoms                             ...      4
Number of basis functions                   ...     38
Number of shells                            ...     18
Maximum angular momentum                    ...      2
Integral batch strategy                     ... SHARK/LIBINT Hybrid
RI-J (if used) integral strategy            ... SPLIT-RIJ (Revised 2003 algorithm where possible)
Printlevel                                  ...      1
Contraction scheme used                     ... SEGMENTED contraction
Prescreening option                         ... SCHWARTZ
   Thresh                                   ... 2.500e-11
   Tcut                                     ... 2.500e-12
   Tpresel                                  ... 2.500e-12 
Coulomb Range Separation                    ... NOT USED
Exchange Range Separation                   ... NOT USED
Multipole approximations                    ... NOT USED
Finite Nucleus Model                        ... NOT USED
CABS basis                                  ... NOT available
Auxiliary Coulomb fitting basis             ... NOT available
Auxiliary J/K fitting basis                 ... NOT available
Auxiliary Correlation fitting basis         ... NOT available
Auxiliary 'external' fitting basis          ... NOT available

Checking pre-screening integrals            ... done (  0.0 sec) Dimension = 18
   => SHARK Basis and OBASIS are compatible. Storing Pre-screening
Shell pair information
Shell pair cut-off parameter TPreSel        ...   2.5e-12
[...]
Zero-Field splitting spin-orbit         ...  NO
Zero-field splitting spin-spin          ...  NO
Hyperfine couplings                     ...  NO (   0 nuclei)
Quadrupole couplings                    ...  NO (   0 nuclei)
Contact density                         ...  NO (   0 nuclei)

NMR properties:
Chemical shifts                         ...  NO (   0 nuclei)
Spin-rotation constants                 ...  NO (   0 nuclei)
Spin-spin couplings                     ...  NO (   0 nuclei,    0 pairs)

Choice of magnetic origin               ... GIAO
Position of magnetic origin             ...     0.000000     0.000000     0.000000

Properties with geometric perturbations:
SCF Hessian                             ...  NO
IR spectrum                             ...  NO
VCD spectrum                            ...  NO
X-ray spectroscopy properties:
SCF XES/XAS/RIXS spectra                ...  NO

SCF SOC stabilization energy            ...  NO
Diagonal Born-Oppenheimer correction    ...  NO

-------------
DIPOLE MOMENT
-------------

Method             : SCF
Type of density    : Electron Density
Multiplicity       :   1
Irrep              :   0
Energy             :  -200.0281067729653159 Eh
Basis              : AO
                                X                 Y                 Z
Electronic contribution:     -0.000021813      -0.000175943      -0.000027722
Nuclear contribution   :     -0.000039043       0.001568012       0.000202597
                        -----------------------------------------
Total Dipole Moment    :     -0.000060856       0.001392069       0.000174875
                        -----------------------------------------
Magnitude (a.u.)       :      0.001404330
Magnitude (Debye)      :      0.003569522



--------------------
Rotational spectrum 
--------------------
 
Rotational constants in cm-1:            17.736700             0.271523             0.267429 
Rotational constants in MHz :        531732.874233          8140.064078          8017.330648 

Dipole components along the rotational axes: 
x,y,z [a.u.] :    -0.000104    -0.000069     0.001399 
x,y,z [Debye]:    -0.000264    -0.000176     0.003555 

 

-------------
DIPOLE MOMENT
-------------

Method             : MP2
Type of density    : Electron Density
Multiplicity       :   1
Level              : Unrelaxed density
Irrep              :   0
Energy             :     0.0000000000000000 Eh
Basis              : AO
                                X                 Y                 Z
Electronic contribution:     -0.000021865      -0.000194505      -0.000030300
Nuclear contribution   :     -0.000039043       0.001568012       0.000202597
                        -----------------------------------------
Total Dipole Moment    :     -0.000060908       0.001373507       0.000172296
                        -----------------------------------------
Magnitude (a.u.)       :      0.001385611
Magnitude (Debye)      :      0.003521943



--------------------
Rotational spectrum 
--------------------
 
Rotational constants in cm-1:            17.736700             0.271523             0.267429 
Rotational constants in MHz :        531732.874233          8140.064078          8017.330648 

Dipole components along the rotational axes: 
x,y,z [a.u.] :    -0.000103    -0.000069     0.001380 
x,y,z [Debye]:    -0.000262    -0.000174     0.003508 

 

-------------
DIPOLE MOMENT
-------------

Method             : MP2
Type of density    : Electron Density
Multiplicity       :   1
Level              : Relaxed density
Irrep              :   0
Energy             :     0.0000000000000000 Eh
Basis              : AO
                                X                 Y                 Z
Electronic contribution:     -0.000023817      -0.000262168      -0.000040580
Nuclear contribution   :     -0.000039043       0.001568012       0.000202597
                        -----------------------------------------
Total Dipole Moment    :     -0.000062860       0.001305844       0.000162017
                        -----------------------------------------
Magnitude (a.u.)       :      0.001317357
Magnitude (Debye)      :      0.003348455



--------------------
Rotational spectrum 
--------------------
 
Rotational constants in cm-1:            17.736700             0.271523             0.267429 
Rotational constants in MHz :        531732.874233          8140.064078          8017.330648 

Dipole components along the rotational axes: 
x,y,z [a.u.] :    -0.000103    -0.000067     0.001312 
x,y,z [Debye]:    -0.000262    -0.000171     0.003334 

 

Dipole moment calculation done in   0.0 sec 

Maximum memory used throughout the entire PROP-calculation: 3.0 MB

----------------------------------------------------------------------------
                           ORCA NUMERICAL FREQUENCIES
----------------------------------------------------------------------------

Number of atoms                ... 4
Central differences            ... used
Translation invariance         ... used
Number of displacements        ... 24 - 6
Numerical increment            ... 5.000e-03 bohr
IR-spectrum generation         ... on
Raman-spectrum generation      ... off
Surface Crossing Hessian       ... off

The output will be reduced. Please look at the following files:
SCF program output             ... >dimer.lastscf
Integral program output        ... >dimer.lastint
Gradient program output        ... >dimer.lastgrad
Dipole moment program output   ... >dimer.lastmom

	<< Calculating gradient on displaced geometry   1 (of  18) >>
	<< Calculating gradient on displaced geometry   2 (of  18) >>
	<< Calculating gradient on displaced geometry   3 (of  18) >>
	<< Calculating gradient on displaced geometry   4 (of  18) >>
	<< Calculating gradient on displaced geometry   5 (of  18) >>
	<< Calculating gradient on displaced geometry   6 (of  18) >>
	<< Calculating gradient on displaced geometry   7 (of  18) >>
	<< Calculating gradient on displaced geometry   8 (of  18) >>
	<< Calculating gradient on displaced geometry   9 (of  18) >>
	<< Calculating gradient on displaced geometry  10 (of  18) >>
	<< Calculating gradient on displaced geometry  11 (of  18) >>
	<< Calculating gradient on displaced geometry  12 (of  18) >>
	<< Calculating gradient on displaced geometry  13 (of  18) >>
	<< Calculating gradient on displaced geometry  14 (of  18) >>
	<< Calculating gradient on displaced geometry  15 (of  18) >>
	<< Calculating gradient on displaced geometry  16 (of  18) >>
	<< Calculating gradient on displaced geometry  17 (of  18) >>
	<< Calculating gradient on displaced geometry  18 (of  18) >>

-----------------------
VIBRATIONAL FREQUENCIES
-----------------------

Scaling factor for frequencies =  1.000000000  (already applied!)

     0:       0.00 cm**-1
     1:       0.00 cm**-1
     2:       0.00 cm**-1
     3:       0.00 cm**-1
     4:       0.00 cm**-1
     5:       0.00 cm**-1
     6:     155.38 cm**-1
     7:     235.16 cm**-1
     8:     514.03 cm**-1
     9:     759.72 cm**-1
    10:    4079.59 cm**-1
    11:    4112.74 cm**-1


------------
NORMAL MODES
------------

These modes are the Cartesian displacements weighted by the diagonal matrix
M(i,i)=1/sqrt(m[i]) where m[i] is the mass of the displaced atom
Thus, these vectors are normalized but *not* orthogonal

                  0          1          2          3          4          5    
      0       0.000000   0.000000   0.000000   0.000000   0.000000   0.000000
      1       0.000000   0.000000   0.000000   0.000000   0.000000   0.000000
      2       0.000000   0.000000   0.000000   0.000000   0.000000   0.000000
      3       0.000000   0.000000   0.000000   0.000000   0.000000   0.000000
      4       0.000000   0.000000   0.000000   0.000000   0.000000   0.000000
      5       0.000000   0.000000   0.000000   0.000000   0.000000   0.000000
      6       0.000000   0.000000   0.000000   0.000000   0.000000   0.000000
      7       0.000000   0.000000   0.000000   0.000000   0.000000   0.000000
      8       0.000000   0.000000   0.000000   0.000000   0.000000   0.000000
      9       0.000000   0.000000   0.000000   0.000000   0.000000   0.000000
     10       0.000000   0.000000   0.000000   0.000000   0.000000   0.000000
     11       0.000000   0.000000   0.000000   0.000000   0.000000   0.000000
                  6          7          8          9         10         11    
      0      -0.029116  -0.495324   0.001385   0.028891  -0.023842   0.023977
      1       0.005122   0.014998   0.036877  -0.000420  -0.004170   0.004168
      2      -0.023478   0.005044   0.006466  -0.003203   0.028420  -0.028443
      3       0.541315  -0.507758  -0.024608  -0.537293   0.442369  -0.451927
      4      -0.095690   0.015025  -0.694988   0.096631   0.080495  -0.078554
      5       0.442635   0.001143  -0.122652  -0.448562  -0.545213   0.536069
      6       0.542186   0.500058  -0.022316   0.537336  -0.441598  -0.452622
      7      -0.096844  -0.015615  -0.695042  -0.094544  -0.081660  -0.079962
      8       0.442430  -0.007748  -0.122285   0.448790   0.544163   0.536800
      9      -0.028372   0.495732   0.001104  -0.028893   0.023801   0.024016
     10       0.005093  -0.014967   0.036875   0.000309   0.004232   0.004243
     11      -0.023482  -0.004694   0.006530   0.003191  -0.028364  -0.028481


-----------
IR SPECTRUM
-----------

 Mode   freq       eps      Int      T**2         TX        TY        TZ
       cm**-1   L/(mol*cm) km/mol    a.u.
----------------------------------------------------------------------------
  6:    155.38   0.116649  589.50  0.234269  ( 0.404113 -0.059058  0.259758)
  7:    235.16   0.000001    0.00  0.000001  (-0.000783 -0.000031 -0.000508)
  8:    514.03   0.068529  346.32  0.041603  (-0.006869 -0.200727 -0.035559)
  9:    759.72   0.000000    0.00  0.000000  (-0.000002  0.000235  0.000024)
 10:   4079.59   0.000000    0.00  0.000000  ( 0.000042 -0.000051 -0.000043)
 11:   4112.74   0.052893  267.30  0.004013  (-0.045298 -0.006195  0.043853)

* The epsilon (eps) is given for a Dirac delta lineshape.
** The dipole moment derivative (T) already includes vibrational overlap.

The first frequency considered to be a vibration is 6
The total number of vibrations considered is 6


--------------------------
THERMOCHEMISTRY AT 298.15K
--------------------------

Temperature         ...   298.15 K
Pressure            ...     1.00 atm
Total Mass          ...    40.01 AMU
Quasi RRHO          ...     True
Cut-Off Frequency   ...     1.00 cm^-1

Throughout the following assumptions are being made:
  (1) The electronic state is orbitally nondegenerate
  (2) There are no thermally accessible electronically excited states
  (3) Hindered rotations indicated by low frequency modes are not
      treated as such but are treated as vibrations and this may
      cause some error
  (4) All equations used are the standard statistical mechanics
      equations for an ideal gas
  (5) All vibrations are strictly harmonic

freq.     155.38  E(vib)   ...       0.40 
freq.     235.16  E(vib)   ...       0.32 
freq.     514.03  E(vib)   ...       0.13 
freq.     759.72  E(vib)   ...       0.06 
freq.    4079.59  E(vib)   ...       0.00 
freq.    4112.74  E(vib)   ...       0.00 

------------
INNER ENERGY
------------

The inner energy is: U= E(el) + E(ZPE) + E(vib) + E(rot) + E(trans)
    E(el)   - is the total energy from the electronic structure calculation
              = E(kin-el) + E(nuc-el) + E(el-el) + E(nuc-nuc)
    E(ZPE)  - the the zero temperature vibrational energy from the frequency calculation
    E(vib)  - the the finite temperature correction to E(ZPE) due to population
              of excited vibrational states
    E(rot)  - is the rotational thermal energy
    E(trans)- is the translational thermal energy

Summary of contributions to the inner energy U:
Electronic energy                ...   -200.39703725 Eh
Zero point energy                ...      0.02245506 Eh      14.09 kcal/mol
Thermal vibrational correction   ...      0.00144654 Eh       0.91 kcal/mol
Thermal rotational correction    ...      0.00141627 Eh       0.89 kcal/mol
Thermal translational correction ...      0.00141627 Eh       0.89 kcal/mol
-----------------------------------------------------------------------
Total thermal energy                   -200.37030311 Eh


Summary of corrections to the electronic energy:
(perhaps to be used in another calculation)
Total thermal correction                  0.00427908 Eh       2.69 kcal/mol
Non-thermal (ZPE) correction              0.02245506 Eh      14.09 kcal/mol
-----------------------------------------------------------------------
Total correction                          0.02673414 Eh      16.78 kcal/mol


--------
ENTHALPY
--------

The enthalpy is H = U + kB*T
                kB is Boltzmann's constant
Total thermal energy              ...   -200.37030311 Eh 
Thermal Enthalpy correction       ...      0.00094421 Eh       0.59 kcal/mol
-----------------------------------------------------------------------
Total Enthalpy                    ...   -200.36935890 Eh


Note: Only C1 symmetry has been detected, increase convergence thresholds 
      if your molecule has a higher symmetry. Symmetry factor of 1.0 is   
      used for the rotational entropy correction. 
 

Note: Rotational entropy computed according to Herzberg 
Infrared and Raman Spectra, Chapter V,1, Van Nostrand Reinhold, 1945 
Point Group:  C1, Symmetry Number:   1  
Rotational constants in cm-1:    17.736715     0.271524     0.267430 

Vibrational entropy computed according to the QRRHO of S. Grimme
Chem.Eur.J. 2012 18 9955 using a reference frequency of 100.0 cm-1


-------
ENTROPY
-------

The entropy contributions are T*S = T*(S(el)+S(vib)+S(rot)+S(trans))
     S(el)   - electronic entropy
     S(vib)  - vibrational entropy
     S(rot)  - rotational entropy
     S(trans)- translational entropy
The entropies will be listed as multiplied by the temperature to get
units of energy

Electronic entropy                ...      0.00000000 Eh      0.00 kcal/mol
Vibrational entropy               ...      0.00251323 Eh      1.58 kcal/mol
Rotational entropy                ...      0.00939136 Eh      5.89 kcal/mol
Translational entropy             ...      0.01757395 Eh     11.03 kcal/mol
-----------------------------------------------------------------------
Final entropy term                ...      0.02947854 Eh     18.50 kcal/mol

In case the symmetry of your molecule has not been determined correctly
or in case you have a reason to use a different symmetry number we print 
out the resulting rotational entropy values for sn=1,12:

 non-linear molecules -----------------------------------
|  sn= 1 | S(rot)=       0.00939136 Eh      5.89 kcal/mol|
|  sn= 2 | S(rot)=       0.00873690 Eh      5.48 kcal/mol|
|  sn= 3 | S(rot)=       0.00835407 Eh      5.24 kcal/mol|
|  sn= 4 | S(rot)=       0.00808244 Eh      5.07 kcal/mol|
|  sn= 5 | S(rot)=       0.00787176 Eh      4.94 kcal/mol|
|  sn= 6 | S(rot)=       0.00769961 Eh      4.83 kcal/mol|
|  sn= 7 | S(rot)=       0.00755407 Eh      4.74 kcal/mol|
|  sn= 8 | S(rot)=       0.00742799 Eh      4.66 kcal/mol|
|  sn= 9 | S(rot)=       0.00731678 Eh      4.59 kcal/mol|
|  sn=10 | S(rot)=       0.00721730 Eh      4.53 kcal/mol|
|  sn=11 | S(rot)=       0.00712731 Eh      4.47 kcal/mol|
|  sn=12 | S(rot)=       0.00704515 Eh      4.42 kcal/mol|
 linear molecules ---------------------------------------
|  Dinfh | S(rot)=       0.00657109 Eh      4.12 kcal/mol|
|  Cinfv | S(rot)=       0.00722554 Eh      4.53 kcal/mol|
 --------------------------------------------------------


-------------------
GIBBS FREE ENERGY
-------------------

The Gibbs free energy is G = H - T*S

Total enthalpy                    ...   -200.36935890 Eh 
Total entropy correction          ...     -0.02947854 Eh    -18.50 kcal/mol
-----------------------------------------------------------------------
Final Gibbs free energy         ...   -200.39883744 Eh

For completeness - the Gibbs free energy minus the electronic energy
G-E(el)                           ...     -0.00180019 Eh     -1.13 kcal/mol



--------------------------------
SUGGESTED CITATIONS FOR THIS RUN
--------------------------------

Below you find a list of papers that are relevant to this ORCA run
We neither can nor want to force you to cite these papers, but we appreciate if you do
You receive ORCA, which is the product of decades of hard work by many enthusiastic individuals, for free
The only thing we kindly ask in return is that you cite our papers,
We deeply appreciate it, if you show your appreciation for ORCA by not just citing the generic ORCA reference.

Please note that relegating all ORCA citations to the supporting information does *not* help us.
SI sections are not indexed - citations you put there will not count into any citation statistics
But we need these citations in order to attract the funding resources that allow us to do what we are doing

Therefore, if you are a happy ORCA user, please consider citing a few of the papers listed below in the main body of your paper

In addition to the list printed below, the program has created the file dimer.bibtex that contains the list in bibtex format
You can import this file easily into all common literature databanks and citation aid programs


List of essential papers. We consider these as the minimum necessary citations

  1. Neese, F.
     Software update: the ORCA program system, version 6.0
     WIRES Comput. Molec. Sci. 2025 15(1), e70019
     doi.org/10.1002/wcms.7019

List of papers to cite with high priority. The work reported in these papers was absolutely
necessary for this run to complete.
Our perspective: the developers of density functionals and basis sets usually get cited in chemistry papers
Good! But without the algorithms to do something with them, the functionals or basis sets would not do anything.
Hence, in our opinion, the algorithm design and method developments papers are equally worthy of getting cited

  1. Neese, F.
     The SHARK Integral Generation and Digestion System
     J. Comp. Chem. 2022 44(3), 381
     doi.org/10.1002/jcc.26942

List of suggested additional citations. These are papers that are important in the 'surrounding' of 
of this run, or papers that preceded the highly important papers. If you like your results we are grateful for a citation.

  1. Neese, F.
     The ORCA program system
     WIRES Comput. Molec. Sci. 2012 2(1), 73-78
     doi.org/10.1002/wcms.81
  2. Neese, F.
     Software update: the ORCA program system, version 4.0
     WIRES Comput. Molec. Sci. 2018 8(1), 1-6
     doi.org/10.1002/wcms.1327
  3. Neese, F.; Wennmohs, F.; Becker, U.; Riplinger, C.
     The ORCA quantum chemistry program package
     J. Chem. Phys. 2020 152(22), 224108
     doi.org/10.1063/5.0004608
  4. Neese, F.
     Software update: The ORCA program system—Version 5.0
     WIRES Comput. Molec. Sci. 2022 12(1), e1606
     doi.org/10.1002/wcms.1606

List of optional additional citations

  1. Neese, F.
     Approximate second-order SCF convergence for spin unrestricted wavefunctions
     Chem. Phys. Lett. 2000 325(1-3), 93-98
     doi.org/10.1016/s0009-2614(00)00662-x

Timings for individual modules:

Sum of individual times          ...       23.603 sec (=   0.393 min)
Startup calculation              ...        2.259 sec (=   0.038 min)   9.6 %
SCF iterations                   ...        4.199 sec (=   0.070 min)  17.8 %
Property calculations            ...        0.035 sec (=   0.001 min)   0.1 %
MP2 module                       ...        6.445 sec (=   0.107 min)  27.3 %
Geometry relaxation              ...        0.019 sec (=   0.000 min)   0.1 %
Numerical frequency calculation  ...       10.647 sec (=   0.177 min)  45.1 %
                             ****ORCA TERMINATED NORMALLY****
TOTAL RUN TIME: 0 days 0 hours 0 minutes 23 seconds 782 msec
