
                                 *****************
                                 * O   R   C   A *
                                 *****************

                                            #,                                       
                                            ###                                      
                                            ####                                     
                                            #####                                    
                                            ######                                   
                                           ########,                                 
                                     ,,################,,,,,                         
                               ,,#################################,,                 
                          ,,##########################################,,             
                       ,#########################################, ''#####,          
                    ,#############################################,,   '####,        
                  ,##################################################,,,,####,       
                ,###########''''           ''''###############################       
              ,#####''   ,,,,##########,,,,          '''####'''          '####       
            ,##' ,,,,###########################,,,                        '##       
           ' ,,###''''                  '''############,,,                           
         ,,##''                                '''############,,,,        ,,,,,,###''
      ,#''                                            '''#######################'''  
     '                                                          ''''####''''         
             ,#######,   #######,   ,#######,      ##                                
            ,#'     '#,  ##    ##  ,#'     '#,    #''#        ,####,    ,#,          
            ##       ##  ##   ,#'  ##            #'  '#       #'       ,# #          
            ##       ##  #######   ##           ,######,      #####,      #          
            '#,     ,#'  ##    ##  '#,     ,#' ,#      #,     #,   #      #          
             '#######'   ##     ##  '#######'  #'      '#     '####' #    #          



                #########################################################
                #                        -***-                          #
                #          Department of theory and spectroscopy        #
                #                                                       #
                #                      Frank Neese                      #
                #                                                       #
                #     Directorship, Architecture, Infrastructure        #
                #                    SHARK, DRIVERS                     #
                #        Core code/Algorithms in most modules           #
                #                                                       #
                #        Max Planck Institute fuer Kohlenforschung      #
                #                Kaiser Wilhelm Platz 1                 #
                #                 D-45470 Muelheim/Ruhr                 #
                #                      Germany                          #
                #                                                       #
                #                  All rights reserved                  #
                #                        -***-                          #
                #########################################################


                         Program Version 6.1.0  -  RELEASE   -
                                (GIT: $679e74b$)
                          ($2025-06-10 18:02:51 +0200$)


 With contributions from (in alphabetic order):
[Max-Planck-Institut fuer Kohlenforschung]                               
  Daniel Aravena         : Magnetic Suceptibility                        
  Michael Atanasov       : Ab Initio Ligand Field Theory (pilot matlab implementation)
  Alexander A. Auer      : GIAO ZORA, VPT2 properties, NMR spectrum      
  Ute Becker             : All parallelization in ORCA, NUMFREQ, NUMCALC 
  Giovanni Bistoni       : ED, misc. LED, open-shell LED, HFLD           
  Dmytro Bykov           : pre 5.0 version of the SCF Hessian            
  Marcos Casanova-Páez   : Triplet and SCS-CIS(D). UHF-(DLPNO)-IP/EA/STEOM-CCSD. UHF-CVS-IP/STEOM-CCSD   
  Vijay G. Chilkuri      : MRCI spin determinant printing, contributions to CSF-ICE 
  Pauline Colinet        : FMM embedding                                 
  Dipayan Datta          : RHF DLPNO-CCSD density                        
  Achintya Kumar Dutta   : EOM-CC, STEOM-CC                              
  Nicolas Foglia         : Exact transition moments, OPA infrastructure, MCD improvements    
  Dmitry Ganyushin       : Spin-Orbit,Spin-Spin,Magnetic field MRCI      
  Miquel Garcia-Rates    : C-PCM and meta-GGA Hessian, CCSD/C-PCM, Gaussian charge scheme 
  Tiago L. C. Gouveia    : GS-ROHF, GS-ROCIS                             
  Yang Guo               : DLPNO-NEVPT2, F12-NEVPT2, CIM, IAO-localization        
  Andreas Hansen         : Spin unrestricted coupled pair/coupled cluster methods 
  Ingolf Harden          : AUTO-CI MPn and infrastructure                
  Benjamin Helmich-Paris : MC-RPA, TRAH-(SCF,CASSCF), AVAS, COSX integrals, SCF dyn. polar., MC-PDFT, srDFT 
  Lee Huntington         : MR-EOM, pCC                                   
  Robert Izsak           : Overlap fitted RIJCOSX, COSX-SCS-MP3, EOM     
  Riya Kayal             : Wick's Theorem for AUTO-CI, AUTO-CI UHF-CCSDT 
  Emily Kempfer          : AUTO-CI RHF CISDT and CCSDT, approximate NEVPT4
  Christian Kollmar      : KDIIS, OOCD, Brueckner-CCSD(T), CCSD density, CASPT2, CASPT2-K, improved NEVPT2 
  Axel Koslowski         : Symmetry handling                             
  Simone Kossmann        : meta-GGA functionals, TD-DFT gradient, OOMP2, (MP2 Hessian; deprecated post 5.0) 
  Lucas Lang             : DCDCAS, Hyperfine gauge corrections, ICE-SOC+SSC
  Marvin Lechner         : AUTO-CI (C++ implementation), FIC-MRCC        
  Spencer Leger          : CASSCF response                               
  Dagmar Lenk            : GEPOL surface, SMD, ORCA-2-JSON               
  Dimitrios Liakos       : Extrapolation schemes; Compound Job, Property file
  Dimitrios Manganas     : Further ROCIS development; embedding schemes. LFT, Crystal Embedding 
  Dimitrios Pantazis     : SARC Basis sets                               
  Anastasios Papadopoulos: AUTO-CI, single reference methods and gradients 
  Taras Petrenko         : pre 6.0 DFT Hessian and TD-DFT gradient,  ECA, NRVS 
  Petra Pikulova         : Analytic Raman intensities                    
  Peter Pinski           : DLPNO-MP2, DLPNO-MP2 Gradient                 
  Shashank Vittal Rao    : ES-AILFT, MagRelax                            
  Christoph Reimann      : Effective Core Potentials                     
  Marius Retegan         : Local ZFS, SOC                                
  Christoph Riplinger    : Optimizer, TS searches, QM/MM, DLPNO-CCSD(T), (RO)-DLPNO pert. Triples 
  Michael Roemelt        : Original ROCIS implementation, recursive CI coupling coefficients
  Masaaki Saitow         : Open-shell DLPNO-CCSD energy and density      
  Barbara Sandhoefer     : DKH picture change effects                    
  Yorick L. A. Schmerwitz: GMF and freeze-and-release deltaSCF, NEB S-IDPP initial path                    
  Kantharuban Sivalingam : CASSCF convergence/infrastructure, NEVPT2, NEVPT3, NEVPT4(SD), FIC-MRCI and CEPA variants
  Bernardo de Souza      : ESD, SOC TD-DFT                               
  Georgi L. Stoychev     : AutoAux, RI-MP2 NMR, DLPNO-MP2 response, X2C  
  Van Anh Tran           : RI-MP2 g-tensors                              
  Willem Van den Heuvel  : Paramagnetic NMR                              
  Zikuan Wang            : NOTCH, Electric field optimization            
  Frank Wennmohs         : Technical directorship and infrastructure     
  Hang Xu                : AUTO-CI-Response properties                   
                                                                         
[FACCTs GmbH]                                                            
  Markus Bursch, Nicolas Foglia, Miquel Garcia-Rates, Ingolf Harden, Hagen Neugebauer, Anastasios Papadopoulos, 
  Christoph Riplinger, Bernardo de Souza, Georgi L. Stoychev                                                    
                                                                 
  APM, various basis sets, CI-OPT, improved COSX, DLPNO-Multilevel,           
  DOCKER, DRACO, updates on ESD, Fragmentator, GOAT, IRC, LR-CPCM, L-BFGS, MBIS, meta-GGA TD-DFT gradient, ML-optimized integration grids, 
  MM, NACMEs, nearIR, NEB, NEB-TS, NL-DFT gradient (VV10), 2- and 3-layer-ONIOM, interface openCOSMO-RS, QMMM,   
  Crystal-QMMM, RESP, rigid body optimization, SF, symmetry and pop. for TD-DFT, various functionals, SOLVATOR                                   
                                                                         
[Other institutions]                                                     
  V. Asgeirsson          : NEB                                           
  Christoph Bannwarth    : sTDA-DFT, sTD-DFT, PBEh-3c, B97-3c, D3        
  Giovanni Bistoni       : ETS/NOCV, ADLD/ADEX, COVALED                  
  Martin Brehm           : Molecular dynamics                            
  Ronald Cardenas        : ETS/NOCV                                      
  Martina Colucci        : COVALED                                       
  Sebastian Ehlert       : rSCAN, r2SCAN, r2SCAN-3c, D4, dhf basis sets  
  Marvin Friede          : D4 for Fr, Ra, Ac-Lr                          
  Lars Goerigk           : TD-DFT with DH, B97 family of functionals     
  Stefan Grimme          : VdW corrections, initial TS optimization, DFT functionals, gCP, sTDA/sTD-DF 
  Waldemar Hujo          : DFT-NL                                        
  H. Jonsson             : NEB                                           
  Holger Kruse           : gCP                                           
  Marcel Mueller         : wB97X-3c, vDZP basis set                      
  Hagen Neugebauer       : wr2SCAN, Native XTB                           
  Gianluca Regni         : ADLD/ADEX                                     
  Tobias Risthaus        : pre 6.0 range-separated hybrid DFT and stability analysis
  Lukas Wittmann         : regularized MP2, r2SCAN double-hybrids, wr2SCAN        
                                                                         
We gratefully acknowledge several colleagues who have allowed us to      
interface, adapt or use parts of their codes:                            
  Ed Valeev, F. Pavosevic, A. Kumar             : LibInt (2-el integral package), F12 methods 
  Garnet Chan, S. Sharma, J. Yang, R. Olivares  : DMRG                   
  Ulf Ekstrom                                   : XCFun DFT Library      
  Mihaly Kallay                                 : mrcc  (arbitrary order and MRCC methods)
  Frank Weinhold                                : gennbo (NPA and NBO analysis)           
  Simon Mueller                                 : openCOSMO-RS                            
  Christopher J. Cramer and Donald G. Truhlar   : smd solvation model                     
  S Lehtola, MJT Oliveira, MAL Marques          : LibXC Library                           
  Liviu Ungur et al                             : ANISO software                          


 Your calculation uses the libint2 library for the computation of 2-el integrals
 For citations please refer to: http://libint.valeyev.net

 Your ORCA version has been built with support for libXC version: 7.0.0
 For citations please refer to: https://libxc.gitlab.io

 This ORCA versions uses:
   CBLAS   interface :  Fast vector & matrix operations
   LAPACKE interface :  Fast linear algebra routines
   SCALAPACK package :  Parallel linear algebra routines
   Shared memory     :  Shared parallel matrices
   BLAS/LAPACK       :  OpenBLAS 0.3.29  USE64BITINT DYNAMIC_ARCH NO_AFFINITY Haswell SINGLE_THREADED
        Core in use  :  Haswell
   Copyright (c) 2011-2014, The OpenBLAS Project


  ***********************************
  * Starting time: Thu Aug 14 16:29:37 2025
  * Host name:     CHEMLAB02
  * Process ID:    1773319
  * Working dir.:  /home/vivek/mm/lab5/hf/monomer
  ***********************************



***************************************
The coordinates will be read from file: monomer-input-coordinates.xyz
***************************************


================================================================================

----- Orbital basis set information -----
Your calculation utilizes the basis: 6-31G**
   H-He, Li-Ne : W. J. Hehre, R. Ditchfield and J.A. Pople, J. Chem. Phys. 56, 2257 (1972).
                 Note: He and Ne are unpublished basis sets taken from the Gaussian program.
                 Note: Li and B from J. D. Dill and J. A. Pople, J. Chem. Phys. 62, 2921 (1975).
   Na - Ar     : M. M. Francl, W. J. Pietro, W. J. Hehre, J. S. Binkley, M. S. Gordon, 
                 D. J. DeFrees and J. A. Pople, J. Chem. Phys. 77, 3654 (1982).
   K - Zn      : V. A. Rassolov, J. A. Pople, M. A. Ratner, and T. L. Windus, J. Chem. Phys. 109, 1223 (1998).

================================================================================
                                        WARNINGS
                       Please study these warnings very carefully!
================================================================================


WARNING: The frozen-core approximation for MP2-gradient calculations is turned on by default.

WARNING: Geometry Optimization
  ===> : Switching off AutoStart
         For restart on a previous wavefunction, please use MOREAD

WARNING: Post HF methods need fully converged wavefunctions
  ===> : Setting SCFConvForced true
         You can overwrite this default with %scf ConvForced false 


================================================================================
                                       INPUT FILE
================================================================================
NAME = monomer.inp
|  1> ! MP2 6-31G** opt numfreq
|  2> 
|  3> * xyzfile 0 1 monomer-input-coordinates.xyz
|  4> 
|  5>                          ****END OF INPUT****
================================================================================

                       *****************************
                       * Geometry Optimization Run *
                       *****************************

Geometry optimization settings:
Update method            Update   .... BFGS
Choice of coordinates    CoordSys .... (2022) Redundant Internals
Initial Hessian          InHess   .... Almloef's Model
Max. no of cycles        MaxIter  .... 50

Convergence Tolerances:
Energy Change            TolE     ....  5.0000e-06 Eh
Max. Gradient            TolMAXG  ....  3.0000e-04 Eh/bohr
RMS Gradient             TolRMSG  ....  1.0000e-04 Eh/bohr
Max. Displacement        TolMAXD  ....  4.0000e-03 bohr
RMS Displacement         TolRMSD  ....  2.0000e-03 bohr
Strict Convergence                .... False

------------------------------------------------------------------------------
                        ORCA OPTIMIZATION COORDINATE SETUP
------------------------------------------------------------------------------

The optimization will be done in redundant internal coordinates (2022)
Making redundant internal coordinates   ...  (2022 redundants) done
Evaluating the initial hessian          ...  (Almloef) done
Evaluating the coordinates              ...  done
Calculating the B-matrix                .... done
Calculating the G-matrix                .... done
The number of degrees of freedom        ....    1

    -----------------------------------------------------------------
                    Redundant Internal Coordinates


    -----------------------------------------------------------------
         Definition                    Initial Value    Approx d2E/dq
    -----------------------------------------------------------------
      1. B(H   1,F   0)                  0.9392         0.521506   
    -----------------------------------------------------------------

Number of atoms                         .... 2
Number of degrees of freedom            .... 1


         *************************************************************
         *                GEOMETRY OPTIMIZATION CYCLE   1            *
         *************************************************************
---------------------------------
CARTESIAN COORDINATES (ANGSTROEM)
---------------------------------
  F     -1.446491    2.408914    0.108757
  H     -0.601952    2.312918    0.508277

----------------------------
CARTESIAN COORDINATES (A.U.)
----------------------------
  NO LB      ZA    FRAG     MASS         X           Y           Z
   0 F     9.0000    0    18.998   -2.733472    4.552188    0.205521
   1 H     1.0000    0     1.008   -1.137524    4.370782    0.960504

--------------------------------
INTERNAL COORDINATES (ANGSTROEM)
--------------------------------
 F      0   0   0     0.000000000000     0.00000000     0.00000000
 H      1   0   0     0.939189855640     0.00000000     0.00000000

---------------------------
INTERNAL COORDINATES (A.U.)
---------------------------
 F      0   0   0     0.000000000000     0.00000000     0.00000000
 H      1   0   0     1.774811614917     0.00000000     0.00000000

---------------------
BASIS SET INFORMATION
---------------------
There are 2 groups of distinct atoms

 Group   1 Type F   : 10s4p1d contracted to 3s2p1d pattern {631/31/1}
 Group   2 Type H   : 4s1p contracted to 2s1p pattern {31/1}

Atom   0F    basis set group =>   1
Atom   1H    basis set group =>   2
------------------------------------------------------------------------------
                             ORCA STARTUP CALCULATIONS
------------------------------------------------------------------------------
------------------------------------------------------------------------------
                   ___                                                        
                  /   \      - P O W E R E D   B Y -                         
                 /     \                                                     
                 |  |  |   _    _      __       _____    __    __             
                 |  |  |  | |  | |    /  \     |  _  \  |  |  /  |          
                  \  \/   | |  | |   /    \    | | | |  |  | /  /          
                 / \  \   | |__| |  /  /\  \   | |_| |  |  |/  /          
                |  |  |   |  __  | /  /__\  \  |    /   |      \           
                |  |  |   | |  | | |   __   |  |    \   |  |\   \          
                \     /   | |  | | |  |  |  |  | |\  \  |  | \   \       
                 \___/    |_|  |_| |__|  |__|  |_| \__\ |__|  \__/        
                                                                              
                      - O R C A' S   B I G   F R I E N D -                    
                                      &                                       
                       - I N T E G R A L  F E E D E R -                       
                                                                              
 v1 FN, 2020, v2 2021, v3 2022-2024                                           
------------------------------------------------------------------------------


----------------------
SHARK INTEGRAL PACKAGE
----------------------

Number of atoms                             ...      2
Number of basis functions                   ...     19
Number of shells                            ...      9
Maximum angular momentum                    ...      2
Integral batch strategy                     ... SHARK/LIBINT Hybrid
RI-J (if used) integral strategy            ... SPLIT-RIJ (Revised 2003 algorithm where possible)
Printlevel                                  ...      1
Contraction scheme used                     ... SEGMENTED contraction
Prescreening option                         ... SCHWARTZ
   Thresh                                   ... 2.500e-11
   Tcut                                     ... 2.500e-12
   Tpresel                                  ... 2.500e-12 
Coulomb Range Separation                    ... NOT USED
Exchange Range Separation                   ... NOT USED
Multipole approximations                    ... NOT USED
Finite Nucleus Model                        ... NOT USED
CABS basis                                  ... NOT available
Auxiliary Coulomb fitting basis             ... NOT available
Auxiliary J/K fitting basis                 ... NOT available
Auxiliary Correlation fitting basis         ... NOT available
Auxiliary 'external' fitting basis          ... NOT available

Checking pre-screening integrals            ... done (  0.0 sec) Dimension = 9
   => SHARK Basis and OBASIS are compatible. Storing Pre-screening
Shell pair information
Shell pair cut-off parameter TPreSel        ...   2.5e-12
Total number of shell pairs                 ...        45
Shell pairs after pre-screening             ...        45
Total number of primitive shell pairs       ...       234
Primitive shell pairs kept                  ...       227
          la=0 lb=0:     15 shell pairs
          la=1 lb=0:     15 shell pairs
          la=1 lb=1:      6 shell pairs
          la=2 lb=0:      5 shell pairs
          la=2 lb=1:      3 shell pairs
          la=2 lb=2:      1 shell pairs

Checking whether 4 symmetric matrices of dimension 19 fit in memory
:Max Core in MB      =   4096.00
 MB in use           =      1.21
 MB left             =   4094.79
 MB needed           =      0.01
 Data fit in memory  = YES
Calculating Nuclear repulsion               ... done (  0.0 sec) ENN=      5.070960728654 Eh

Diagonalization of the overlap matrix:
Smallest eigenvalue                        ... 4.848e-02
Time for diagonalization                   ...    0.000 sec
Threshold for overlap eigenvalues          ... 1.000e-07
Number of eigenvalues below threshold      ... 0
Time for construction of square roots      ...    0.000 sec
Total time needed                          ...    0.000 sec

-------------------
DFT GRID GENERATION
-------------------

General Integration Accuracy     IntAcc      ... 4.388
Radial Grid Type                 RadialGrid  ... OptM3 with GC (2021)
Angular Grid (max. ang.)         AngularGrid ... 4 (Lebedev-302)
Angular grid pruning method      GridPruning ... 4 (adaptive)
Weight generation scheme         WeightScheme... mBecke (2022)
Basis function cutoff            BFCut       ... 1.0000e-11
Integration weight cutoff        WCut        ... 1.0000e-14
Partially contracted basis set               ... off
Rotationally invariant grid construction     ... off
Angular grids for H and He will be reduced by one unit

Total number of grid points                  ...     9461
Total number of batches                      ...      149
Average number of points per batch           ...       63
Average number of grid points per atom       ...     4730
Grids setup in   0.0 sec
Initializing property integral containers    ... done (  0.0 sec)

SHARK setup successfully completed in   0.0 seconds

Maximum memory used throughout the entire STARTUP-calculation: 7.6 MB
-------------------------------------------------------------------------------
                                 ORCA GUESS
                   Start orbitals & Density for SCF / CASSCF
-------------------------------------------------------------------------------

------------
SCF SETTINGS
------------
Hamiltonian:
 Ab initio Hamiltonian  Method          .... Hartree-Fock(GTOs)


General Settings:
 Integral files         IntName         .... monomer
 Hartree-Fock type      HFTyp           .... RHF
 Total Charge           Charge          ....    0
 Multiplicity           Mult            ....    1
 Number of Electrons    NEL             ....   10
 Basis Dimension        Dim             ....   19
 Nuclear Repulsion      ENuc            ....      5.0709607287 Eh

Convergence Acceleration:
 AO-DIIS                CNVDIIS         .... on
   Start iteration      DIISMaxIt       ....    12
   Startup error        DIISStart       ....  0.200000
   # of expansion vecs  DIISMaxEq       ....     5
   Bias factor          DIISBfac        ....   1.050
   Max. coefficient     DIISMaxC        ....  10.000
 MO-DIIS                CNVKDIIS        .... off
 Trust-Rad. Augm. Hess. CNVTRAH         .... auto
   Auto Start mean grad. ratio tolernc. ....  1.125000
   Auto Start start iteration           ....    50
   Auto Start num. interpolation iter.  ....    10
   Max. Number of Micro iterations      ....    24
   Max. Number of Macro iterations      .... Maxiter - #DIIS iter
   Number of Davidson start vectors     ....     2
   Converg. threshold    (grad. norm)   ....   1.000e-05
   Grad. Scal. Fac. for Micro threshold ....   0.100
   Minimum threshold for Micro iter.    ....   1.000e-02
   NR start threshold (gradient norm)   ....   1.000e-04
   Initial trust radius                 ....   0.400
   Minimum AH scaling param. (alpha)    ....   1.000
   Maximum AH scaling param. (alpha)    .... 1000.000
   Quad. conv. algorithm                .... NR
   White noise on init. David. guess    .... on
   Maximum white noise                  ....   0.010
   Pseudo random numbers                .... off
   Inactive MOs                         .... canonical
   Orbital update algorithm             .... Taylor
   Preconditioner                       .... Diag
   Full preconditioner red. dimension   ....   250
 SOSCF                 CNVSOSCF           .... on
   Start iteration     SOSCFMaxIt         ....   150
   Startup grad/error  SOSCFStart         ....  0.003300
   Hessian update      SOSCFHessUp        .... L-BFGS
   Autom. constraints  SOSCFAutoConstrain .... off
 Level Shifting         CNVShift        .... on
   Level shift para.    LevelShift      ....    0.2500
   Turn off err/grad.   ShiftErr        ....    0.0010
 Zerner damping         CNVZerner       .... off
 Static damping         CNVDamp         .... on
   Fraction old density DampFac         ....    0.7000
   Max. Damping (<1)    DampMax         ....    0.9800
   Min. Damping (>=0)   DampMin         ....    0.0000
   Turn off err/grad.   DampErr         ....    0.1000

SCF Procedure:
 Maximum # iterations   MaxIter         ....   125
 SCF integral mode      SCFMode         .... Direct
   Integral package                     .... SHARK and LIBINT hybrid scheme
 Reset frequency        DirectResetFreq ....    20
 Integral Threshold     Thresh          ....  2.500e-11 Eh
 Primitive CutOff       TCut            ....  2.500e-12 Eh

Convergence Tolerance:
 Convergence Check Mode ConvCheckMode   .... Total+1el-Energy
 Convergence forced     ConvForced      .... 1
 Energy Change          TolE            ....  1.000e-08 Eh
 1-El. energy change                    ....  1.000e-05 Eh
 Orbital Gradient       TolG            ....  1.000e-05
 Orbital Rotation angle TolX            ....  1.000e-05
 DIIS Error             TolErr          ....  5.000e-07

------------------------------
INITIAL GUESS: MODEL POTENTIAL
------------------------------
Loading Hartree-Fock densities                     ... done
Calculating cut-offs                               ... done
Initializing the effective Hamiltonian             ... done
Setting up the integral package (SHARK)            ... done
Starting the Coulomb interaction                   ... done (   0.0 sec)
Making the grid                                    ... done (   0.0 sec)
Mapping shells                                     ... done
Starting the XC term evaluation                    ... done (   0.0 sec)
Transforming the Hamiltonian                       ... done (   0.0 sec)
Diagonalizing the Hamiltonian                      ... done (   0.0 sec)
Back transforming the eigenvectors                 ... done (   0.0 sec)
Now organizing SCF variables                       ... done
                      ------------------
                      INITIAL GUESS DONE (   0.0 sec)
                      ------------------
             **** ENERGY FILE WAS UPDATED (monomer.en.tmp) ****
Finished Guess after   0.0 sec
Maximum memory used throughout the entire GUESS-calculation: 3.4 MB

-------------------------------------------------------------------------------------------
                                      ORCA LEAN-SCF
                              memory conserving SCF solver
-------------------------------------------------------------------------------------------

----------------------------------------D-I-I-S--------------------------------------------
Iteration    Energy (Eh)           Delta-E    RMSDP     MaxDP     DIISErr   Damp  Time(sec)
-------------------------------------------------------------------------------------------
               ***  Starting incremental Fock matrix formation  ***
    1    -99.9747801055537622     0.00e+00  6.01e-03  4.08e-02  2.17e-01  0.700   0.0
    2    -99.9874550222719591    -1.27e-02  3.98e-03  2.87e-02  1.34e-01  0.700   0.0
                               ***Turning on AO-DIIS***
    3    -99.9944662800416637    -7.01e-03  1.59e-03  1.36e-02  7.77e-02  0.700   0.0
    4    -99.9987919918666677    -4.33e-03  3.52e-03  3.11e-02  5.52e-02  0.000   0.0
    5    -100.0083751112733665    -9.58e-03  3.63e-04  3.18e-03  6.42e-03  0.000   0.0
                              *** Initializing SOSCF ***
---------------------------------------S-O-S-C-F--------------------------------------
Iteration    Energy (Eh)           Delta-E    RMSDP     MaxDP     MaxGrad    Time(sec)
--------------------------------------------------------------------------------------
    6    -100.0084043327435239    -2.92e-05  1.88e-04  1.20e-03  2.05e-03     0.0
               *** Restarting incremental Fock matrix formation ***
    7    -100.0084094045180763    -5.07e-06  7.51e-05  4.38e-04  4.15e-04     0.0
    8    -100.0084099512672111    -5.47e-07  5.19e-05  2.72e-04  1.54e-04     0.0
    9    -100.0084100581043316    -1.07e-07  8.19e-06  4.23e-05  4.39e-05     0.0
   10    -100.0084100633140309    -5.21e-09  8.27e-07  5.00e-06  2.70e-06     0.0
                 **** Energy Check signals convergence ****

               *****************************************************
               *                     SUCCESS                       *
               *           SCF CONVERGED AFTER  10 CYCLES          *
               *****************************************************

             **** ENERGY FILE WAS UPDATED (monomer.en.tmp) ****

----------------
TOTAL SCF ENERGY
----------------

Total Energy       :       -100.00841006334677 Eh           -2721.36719 eV

Components:
Nuclear Repulsion  :          5.07096072865354 Eh             137.98786 eV
Electronic Energy  :       -105.07937079200032 Eh           -2859.35505 eV
One Electron Energy:       -150.50156613176279 Eh           -4095.35582 eV
Two Electron Energy:         45.42219533976247 Eh            1236.00077 eV

Virial components:
Potential Energy   :       -199.97292794533334 Eh           -5441.54001 eV
Kinetic Energy     :         99.96451788198657 Eh            2720.17282 eV
Virial Ratio       :          2.00043907760764

---------------
SCF CONVERGENCE
---------------

  Last Energy change         ...    5.2097e-09  Tolerance :   1.0000e-08
  Last MAX-Density change    ...    5.0038e-06  Tolerance :   1.0000e-07
  Last RMS-Density change    ...    8.2705e-07  Tolerance :   5.0000e-09
  Last DIIS Error            ...    2.0547e-03  Tolerance :   5.0000e-07
  Last Orbital Gradient      ...    2.7005e-06  Tolerance :   1.0000e-05
  Last Orbital Rotation      ...    3.0133e-06  Tolerance :   1.0000e-05


----------------
ORBITAL ENERGIES
----------------

  NO   OCC          E(Eh)            E(eV) 
   0   2.0000     -26.273165      -714.9292 
   1   2.0000      -1.570836       -42.7446 
   2   2.0000      -0.734740       -19.9933 
   3   2.0000      -0.624923       -17.0050 
   4   2.0000      -0.624923       -17.0050 
   5   0.0000       0.214594         5.8394 
   6   0.0000       1.014477        27.6053 
   7   0.0000       1.488337        40.4997 
   8   0.0000       1.488337        40.4997 
   9   0.0000       1.540953        41.9315 
  10   0.0000       1.893137        51.5149 
  11   0.0000       1.893137        51.5149 
  12   0.0000       1.930712        52.5373 
  13   0.0000       2.158605        58.7386 
  14   0.0000       2.158605        58.7386 
  15   0.0000       2.819993        76.7359 
*Only the first 10 virtual orbitals were printed.

                    ********************************
                    * MULLIKEN POPULATION ANALYSIS *
                    ********************************

-----------------------
MULLIKEN ATOMIC CHARGES
-----------------------
   0 F :   -0.421623
   1 H :    0.421623
Sum of atomic charges:    0.0000000

--------------------------------
MULLIKEN REDUCED ORBITAL CHARGES
--------------------------------
  0 F s       :     3.925982  s :     3.925982
      pz      :     1.901875  p :     5.485833
      px      :     1.600103
      py      :     1.983855
      dz2     :     0.000971  d :     0.009809
      dxz     :     0.003667
      dyz     :     0.000288
      dx2y2   :     0.003644
      dxy     :     0.001239

  1 H s       :     0.525721  s :     0.525721
      pz      :     0.013996  p :     0.052656
      px      :     0.028642
      py      :     0.010017



                     *******************************
                     * LOEWDIN POPULATION ANALYSIS *
                     *******************************

----------------------
LOEWDIN ATOMIC CHARGES
----------------------
   0 F :   -0.223385
   1 H :    0.223385

-------------------------------
LOEWDIN REDUCED ORBITAL CHARGES
-------------------------------
  0 F s       :     3.759616  s :     3.759616
      pz      :     1.886453  p :     5.450875
      px      :     1.600206
      py      :     1.964216
      dz2     :     0.000857  d :     0.012895
      dxz     :     0.005405
      dyz     :     0.000166
      dx2y2   :     0.005744
      dxy     :     0.000722

  1 H s       :     0.626290  s :     0.626290
      pz      :     0.041136  p :     0.150324
      px      :     0.078093
      py      :     0.031096



                      *****************************
                      * MAYER POPULATION ANALYSIS *
                      *****************************

  NA   - Mulliken gross atomic population
  ZA   - Total nuclear charge
  QA   - Mulliken gross atomic charge
  VA   - Mayer's total valence
  BVA  - Mayer's bonded valence
  FA   - Mayer's free valence

  ATOM       NA         ZA         QA         VA         BVA        FA
  0 F      9.4216     9.0000    -0.4216     0.8286     0.8286     0.0000
  1 H      0.5784     1.0000     0.4216     0.8286     0.8286     0.0000

  Mayer bond orders larger than 0.100000
B(  0-F ,  1-H ) :   0.8286 

-------
TIMINGS
-------

Total SCF time: 0 days 0 hours 0 min 0 sec 

Total time                  ....       0.029 sec
Sum of individual times     ....       0.024 sec  ( 82.3%)

SCF preparation             ....       0.011 sec  ( 38.7%)
Fock matrix formation       ....       0.010 sec  ( 35.5%)
  Startup                   ....       0.000 sec  (  0.9% of F)
  Coulomb+Exchange Fock     ....       0.010 sec  (102.8% of F)
Diagonalization             ....       0.000 sec  (  0.0%)
Density matrix formation    ....       0.000 sec  (  1.5%)
Total Energy calculation    ....       0.000 sec  (  0.4%)
Population analysis         ....       0.000 sec  (  1.6%)
Orbital Transformation      ....       0.000 sec  (  0.5%)
Orbital Orthonormalization  ....       0.000 sec  (  0.0%)
DIIS solution               ....       0.001 sec  (  2.6%)
SOSCF solution              ....       0.000 sec  (  1.3%)
Finished LeanSCF after   0.0 sec

Maximum memory used throughout the entire LEANSCF-calculation: 7.0 MB

------------------------------------------------------------------------------
                                ORCA  MP2 
------------------------------------------------------------------------------

Freezing NCore=2 chemical core electrons
MP2 will be done in the AO integral direct mode
The Q1-step will be done using symmetric double matrices
Dimension of the basis                    ...   19
Memory devoted for MP2                    ... 4096 MB   
Memory needed for all in one shot         ...    1 MB
Number of MOs that can be treated together... 148716      
MP2 density construction                  ... relaxed
The MP2 gradient is requested => amplitudes will be stored on disk
Total number of MOs              ...    4
Number of MOs treated per batch  ...    4 
Number of batches necessary      ...    1 
OPERATORS   0/  0 PASS   0
-----------------------------------------------
 MP2 CORRELATION ENERGY   :     -0.183542629 Eh
-----------------------------------------------


---------------------
MP2 DENSITY FORMATION
---------------------

Completing the external part of the density      ... done
Storing the unrelaxed density                    ... done

Calculating G(D)                                 ... done
Completing the Lagrangian                        ... done
Solving the Z-vector equations                   ... 
-------------------
SHARK CP-SCF DRIVER
-------------------

Dimension of the orbital basis          ...     19
Dimension of the CPSCF-problem          ...     70
Number of operators                     ...      1
Max. number of iterations               ...    128
Convergence Tolerance                   ... 1.0e-04
Number of perturbations                 ...      1
Perturbation type                       ... REAL

----------------------------
POPLE LINEAR EQUATION SOLVER
----------------------------

  ITERATION   0:   ||err||_max =   3.0405e-02 (   0.0 sec)
  ITERATION   1:   ||err||_max =   2.3196e-03 (   0.0 sec)
  ITERATION   2:   ||err||_max =   3.0300e-04 (   0.0 sec)
  ITERATION   3:   ||err||_max =   7.2919e-05 (   0.0 sec)
                                                 ... done
Finalizing the relaxed density                   ... done
Transforming P to the AO basis                   ... done
Storing the relaxed density                      ... done

------------------------------------
ENERGY WEIGHTED DENSITY FINALIZATION
------------------------------------

Gathering the parts of the W-matrix              ...                                                      done
Forming the Z-density                            ... done
Transforming Z to the AO basis                   ... done
Calculating G(Z)                                 ... done
Finalizing the W-matrix                          ...                                                      done
Transforming W to the AO basis and storing       ... done

                *********************************************
                * UNRELAXED MP2 DENSITY POPULATION ANALYSIS *
                *********************************************

------------------------------------------------------------------------------
                           ORCA POPULATION ANALYSIS
------------------------------------------------------------------------------
Input electron density              ... monomer.pmp2ur
BaseName (.gbw .S,...)              ... monomer

                    ********************************
                    * MULLIKEN POPULATION ANALYSIS *
                    ********************************

-----------------------
MULLIKEN ATOMIC CHARGES
-----------------------
   0 F :   -0.417821
   1 H :    0.417821
Sum of atomic charges:    0.0000000

--------------------------------
MULLIKEN REDUCED ORBITAL CHARGES
--------------------------------
  0 F s       :     3.924705  s :     3.924705
      pz      :     1.895094  p :     5.465268
      px      :     1.593015
      py      :     1.977158
      dz2     :     0.004557  d :     0.027848
      dxz     :     0.007327
      dyz     :     0.003806
      dx2y2   :     0.007262
      dxy     :     0.004896
  1 H s       :     0.528423  s :     0.528423
      pz      :     0.014469  p :     0.053755
      px      :     0.028679
      py      :     0.010608


                     *******************************
                     * LOEWDIN POPULATION ANALYSIS *
                     *******************************

----------------------
LOEWDIN ATOMIC CHARGES
----------------------
   0 F :   -0.219796
   1 H :    0.219796

-------------------------------
LOEWDIN REDUCED ORBITAL CHARGES
-------------------------------
  0 F s       :     3.758387  s :     3.758387
      pz      :     1.879661  p :     5.430273
      px      :     1.593103
      py      :     1.957508
      dz2     :     0.004399  d :     0.031137
      dxz     :     0.009231
      dyz     :     0.003657
      dx2y2   :     0.009584
      dxy     :     0.004266
  1 H s       :     0.627660  s :     0.627660
      pz      :     0.041889  p :     0.152544
      px      :     0.078790
      py      :     0.031865


                      *****************************
                      * MAYER POPULATION ANALYSIS *
                      *****************************

  NA   - Mulliken gross atomic population
  ZA   - Total nuclear charge
  QA   - Mulliken gross atomic charge
  VA   - Mayer's total valence
  BVA  - Mayer's bonded valence
  FA   - Mayer's free valence

  ATOM       NA         ZA         QA         VA         BVA        FA
  0 F      9.4178     9.0000    -0.4178     1.0803     0.7968     0.2835
  1 H      0.5822     1.0000     0.4178     0.8353     0.7968     0.0385

  Mayer bond orders larger than 0.100000
B(  0-F ,  1-H ) :   0.7968 


                *******************************************
                * RELAXED MP2 DENSITY POPULATION ANALYSIS *
                *******************************************

------------------------------------------------------------------------------
                           ORCA POPULATION ANALYSIS
------------------------------------------------------------------------------
Input electron density              ... monomer.pmp2re
BaseName (.gbw .S,...)              ... monomer

                    ********************************
                    * MULLIKEN POPULATION ANALYSIS *
                    ********************************

-----------------------
MULLIKEN ATOMIC CHARGES
-----------------------
   0 F :   -0.397966
   1 H :    0.397966
Sum of atomic charges:    0.0000000

--------------------------------
MULLIKEN REDUCED ORBITAL CHARGES
--------------------------------
  0 F s       :     3.923934  s :     3.923934
      pz      :     1.891237  p :     5.446525
      px      :     1.579312
      py      :     1.975975
      dz2     :     0.004563  d :     0.027507
      dxz     :     0.007145
      dyz     :     0.003816
      dx2y2   :     0.007045
      dxy     :     0.004938
  1 H s       :     0.548906  s :     0.548906
      pz      :     0.014789  p :     0.053128
      px      :     0.026819
      py      :     0.011521


                     *******************************
                     * LOEWDIN POPULATION ANALYSIS *
                     *******************************

----------------------
LOEWDIN ATOMIC CHARGES
----------------------
   0 F :   -0.211091
   1 H :    0.211091

-------------------------------
LOEWDIN REDUCED ORBITAL CHARGES
-------------------------------
  0 F s       :     3.759988  s :     3.759988
      pz      :     1.877225  p :     5.419763
      px      :     1.586273
      py      :     1.956265
      dz2     :     0.004424  d :     0.031340
      dxz     :     0.009300
      dyz     :     0.003665
      dx2y2   :     0.009649
      dxy     :     0.004302
  1 H s       :     0.637259  s :     0.637259
      pz      :     0.042243  p :     0.151650
      px      :     0.076459
      py      :     0.032948


                      *****************************
                      * MAYER POPULATION ANALYSIS *
                      *****************************

  NA   - Mulliken gross atomic population
  ZA   - Total nuclear charge
  QA   - Mulliken gross atomic charge
  VA   - Mayer's total valence
  BVA  - Mayer's bonded valence
  FA   - Mayer's free valence

  ATOM       NA         ZA         QA         VA         BVA        FA
  0 F      9.3980     9.0000    -0.3980     1.0979     0.8159     0.2819
  1 H      0.6020     1.0000     0.3980     0.8543     0.8159     0.0383

  Mayer bond orders larger than 0.100000
B(  0-F ,  1-H ) :   0.8159 


----------------------------------
MP2 DERIVATIVE INTEGRAL GENERATION
----------------------------------

Input SCF Electron Density              ... monomer.scfp
Input Correlated Electron Density       ... monomer.pmp2re
Input Energy Weighted Density           ... monomer.wmp2.tmp
Input Wavefunction Amplitudes           ... monomer.mp2tsaa.tmp

Nuclear repulsion gradient              ... done (  0.0 sec)
HCore & Overlap gradient  (SHARK)       ... done (  0.0 sec)
Analytic two-electron gradient terms    ... 
  Batch handling in the gradient evaluation:
  General contraction                   ... not used
  Memory available                      ... 4094.7 MB
  Memory per occupied orbital in Q2     ...    0.0 MB
  Memory per occupied orbital in Q3     ...    0.0 MB
  Total memory requirement per |i>      ...    0.0 MB
  Number of orbitals treated per batch  ...      4
  Number of batches to be done          ...      1
done (  0.0 sec)

---------------------------------------
MP2 TOTAL ENERGY:     -100.191952692 Eh
---------------------------------------

The final MP2 gradient
  0:  -0.01807236   0.00205419  -0.00854937
  1:   0.01807236  -0.00205419   0.00854937

-----------------------------------
NORM OF THE MP2 GRADIENT:  0.028423
-----------------------------------

Maximum memory used throughout the entire MP2-calculation: 12.9 MB

-------------------------   --------------------
FINAL SINGLE POINT ENERGY      -100.191952692131
-------------------------   --------------------

------------------------------------------------------------------------------
                         ORCA GEOMETRY RELAXATION STEP
------------------------------------------------------------------------------

Reading the OPT-File                    .... done
Getting information on internals        .... done
Copying old internal coords+grads       .... done
Making the new internal coordinates     .... (2022 redundants) done
Validating the new internal coordinates .... (2022 redundants) done
Calculating the B-matrix                .... done
Calculating the G,G- and P matrices     .... done
Transforming gradient to internals      .... done
Projecting the internal gradient        .... done
Number of atoms                         ....   2
Number of internal coordinates          ....   1
Current Energy                          ....  -100.191952692 Eh
Current gradient norm                   ....     0.028422584 Eh/bohr
Maximum allowed component of the step   ....  0.300
Current trust radius                    ....  0.300
Evaluating the initial hessian          ....  (Almloef) done
Projecting the Hessian                  .... done
Forming the augmented Hessian           .... done
Diagonalizing the augmented Hessian     .... done
Last element of RFO vector              ....  0.999260430
Lowest eigenvalues of augmented Hessian:
 -0.000773382
Length of the computed step             ....  0.038480944
The final length of the internal step   ....  0.038480944
Converting the step to Cartesian space:
 Initial RMS(Int)=    0.0384809441
Transforming coordinates:
 Iter   0:  RMS(Cart)=    0.0111084917 RMS(Int)=    0.0384809441
done
Storing new coordinates                 .... done

                                .--------------------.
          ----------------------|Geometry convergence|-------------------------
          Item                value                   Tolerance       Converged
          ---------------------------------------------------------------------
          RMS gradient        0.0200978021            0.0001000000      NO
          MAX gradient        0.0200978021            0.0003000000      NO
          RMS step            0.0384809441            0.0020000000      NO
          MAX step            0.0384809441            0.0040000000      NO
          -------------------------------------------------------------------------
          ........................................................
          Max(Bonds)      0.0204      Max(Angles)    0.00
          Max(Dihed)        0.00      Max(Improp)    0.00
          ---------------------------------------------------------------------

The optimization has not yet converged - more geometry cycles are needed


    ---------------------------------------------------------------------------
                         Redundant Internal Coordinates
                            (Angstroem and degrees)

        Definition                    Value    dE/dq     Step     New-Value
    ----------------------------------------------------------------------------
     1. B(H   1,F   0)                0.9392  0.020098 -0.0204    0.9188   
    ----------------------------------------------------------------------------

Geometry step timings:
Preparation and reading OPT file:      0.000 s ( 6.098 %)
Internal coordinates            :      0.000 s ( 4.878 %)
B/P matrices and projection     :      0.000 s (20.122 %)
Hessian update/contruction      :      0.000 s (16.463 %)
Making the step                 :      0.000 s (16.463 %)
Converting the step to Cartesian:      0.000 s ( 7.317 %)
Storing new data                :      0.000 s ( 4.878 %)
Checking convergence            :      0.000 s ( 9.756 %)
Final printing                  :      0.000 s (13.415 %)
Total time                      :      0.000 s

Time for energy+gradient        :      0.190 s
Time for complete geometry iter :      0.198 s

         *************************************************************
         *                GEOMETRY OPTIMIZATION CYCLE   2            *
         *************************************************************
---------------------------------
CARTESIAN COORDINATES (ANGSTROEM)
---------------------------------
  F     -1.437335    2.407873    0.113088
  H     -0.611108    2.313959    0.503946

----------------------------
CARTESIAN COORDINATES (A.U.)
----------------------------
  NO LB      ZA    FRAG     MASS         X           Y           Z
   0 F     9.0000    0    18.998   -2.716170    4.550221    0.213706
   1 H     1.0000    0     1.008   -1.154826    4.372748    0.952320

--------------------------------
INTERNAL COORDINATES (ANGSTROEM)
--------------------------------
 F      0   0   0     0.000000000000     0.00000000     0.00000000
 H      1   0   0     0.918826617056     0.00000000     0.00000000

---------------------------
INTERNAL COORDINATES (A.U.)
---------------------------
 F      0   0   0     0.000000000000     0.00000000     0.00000000
 H      1   0   0     1.736330670794     0.00000000     0.00000000

------------------------------------------------------------------------------
                   ___                                                        
                  /   \      - P O W E R E D   B Y -                         
                 /     \                                                     
                 |  |  |   _    _      __       _____    __    __             
                 |  |  |  | |  | |    /  \     |  _  \  |  |  /  |          
                  \  \/   | |  | |   /    \    | | | |  |  | /  /          
                 / \  \   | |__| |  /  /\  \   | |_| |  |  |/  /          
                |  |  |   |  __  | /  /__\  \  |    /   |      \           
                |  |  |   | |  | | |   __   |  |    \   |  |\   \          
                \     /   | |  | | |  |  |  |  | |\  \  |  | \   \       
                 \___/    |_|  |_| |__|  |__|  |_| \__\ |__|  \__/        
                                                                              
                      - O R C A' S   B I G   F R I E N D -                    
                                      &                                       
                       - I N T E G R A L  F E E D E R -                       
                                                                              
 v1 FN, 2020, v2 2021, v3 2022-2024                                           
------------------------------------------------------------------------------


----------------------
SHARK INTEGRAL PACKAGE
----------------------

Number of atoms                             ...      2
Number of basis functions                   ...     19
Number of shells                            ...      9
Maximum angular momentum                    ...      2
Integral batch strategy                     ... SHARK/LIBINT Hybrid
RI-J (if used) integral strategy            ... SPLIT-RIJ (Revised 2003 algorithm where possible)
Printlevel                                  ...      1
Contraction scheme used                     ... SEGMENTED contraction
Prescreening option                         ... SCHWARTZ
   Thresh                                   ... 2.500e-11
   Tcut                                     ... 2.500e-12
   Tpresel                                  ... 2.500e-12 
Coulomb Range Separation                    ... NOT USED
Exchange Range Separation                   ... NOT USED
Multipole approximations                    ... NOT USED
Finite Nucleus Model                        ... NOT USED
CABS basis                                  ... NOT available
Auxiliary Coulomb fitting basis             ... NOT available
Auxiliary J/K fitting basis                 ... NOT available
Auxiliary Correlation fitting basis         ... NOT available
Auxiliary 'external' fitting basis          ... NOT available

Checking pre-screening integrals            ... done (  0.0 sec) Dimension = 9
   => SHARK Basis and OBASIS are compatible. Storing Pre-screening
Shell pair information
Shell pair cut-off parameter TPreSel        ...   2.5e-12
Total number of shell pairs                 ...        45
Shell pairs after pre-screening             ...        45
Total number of primitive shell pairs       ...       234
Primitive shell pairs kept                  ...       227
          la=0 lb=0:     15 shell pairs
          la=1 lb=0:     15 shell pairs
          la=1 lb=1:      6 shell pairs
          la=2 lb=0:      5 shell pairs
          la=2 lb=1:      3 shell pairs
          la=2 lb=2:      1 shell pairs

Checking whether 4 symmetric matrices of dimension 19 fit in memory
:Max Core in MB      =   4096.00
 MB in use           =      1.22
 MB left             =   4094.78
 MB needed           =      0.01
 Data fit in memory  = YES
Calculating Nuclear repulsion               ... done (  0.0 sec) ENN=      5.183344481202 Eh

Diagonalization of the overlap matrix:
Smallest eigenvalue                        ... 4.584e-02
Time for diagonalization                   ...    0.000 sec
Threshold for overlap eigenvalues          ... 1.000e-07
Number of eigenvalues below threshold      ... 0
Time for construction of square roots      ...    0.000 sec
Total time needed                          ...    0.000 sec

-------------------
DFT GRID GENERATION
-------------------

General Integration Accuracy     IntAcc      ... 4.388
Radial Grid Type                 RadialGrid  ... OptM3 with GC (2021)
Angular Grid (max. ang.)         AngularGrid ... 4 (Lebedev-302)
Angular grid pruning method      GridPruning ... 4 (adaptive)
Weight generation scheme         WeightScheme... mBecke (2022)
Basis function cutoff            BFCut       ... 1.0000e-11
Integration weight cutoff        WCut        ... 1.0000e-14
Partially contracted basis set               ... off
Rotationally invariant grid construction     ... off
Angular grids for H and He will be reduced by one unit

Total number of grid points                  ...     9461
Total number of batches                      ...      148
Average number of points per batch           ...       63
Average number of grid points per atom       ...     4730
Grids setup in   0.0 sec
Initializing property integral containers    ... done (  0.0 sec)

SHARK setup successfully completed in   0.0 seconds

Maximum memory used throughout the entire STARTUP-calculation: 7.6 MB
Occupation numbers will be reassigned to an Aufbau configuration
             **** ENERGY FILE WAS UPDATED (monomer.en.tmp) ****
Finished Guess after   0.0 sec
Maximum memory used throughout the entire GUESS-calculation: 3.4 MB
----------------------------------------D-I-I-S--------------------------------------------
Iteration    Energy (Eh)           Delta-E    RMSDP     MaxDP     DIISErr   Damp  Time(sec)
-------------------------------------------------------------------------------------------
               ***  Starting incremental Fock matrix formation  ***
    1    -100.0096331329061456     0.00e+00  3.69e-04  2.17e-03  1.00e-02  0.700   0.0
    2    -100.0096754422630454    -4.23e-05  2.96e-04  1.76e-03  7.86e-03  0.700   0.0
                               ***Turning on AO-DIIS***
    3    -100.0097077081778139    -3.23e-05  2.44e-04  1.48e-03  6.01e-03  0.700   0.0
    4    -100.0097318352367353    -2.41e-05  6.22e-04  3.57e-03  4.39e-03  0.000   0.0
                              *** Initializing SOSCF ***
---------------------------------------S-O-S-C-F--------------------------------------
Iteration    Energy (Eh)           Delta-E    RMSDP     MaxDP     MaxGrad    Time(sec)
--------------------------------------------------------------------------------------
    5    -100.0097976799167299    -6.58e-05  5.88e-05  3.67e-04  5.67e-04     0.0
               *** Restarting incremental Fock matrix formation ***
    6    -100.0097981220720555    -4.42e-07  2.81e-05  1.70e-04  1.36e-04     0.0
    7    -100.0097981973301700    -7.53e-08  1.75e-05  1.05e-04  5.66e-05     0.0
    8    -100.0097982109305690    -1.36e-08  2.68e-06  1.43e-05  1.39e-05     0.0
    9    -100.0097982113386337    -4.08e-10  6.78e-07  3.90e-06  4.54e-06     0.0
                 **** Energy Check signals convergence ****

               *****************************************************
               *                     SUCCESS                       *
               *           SCF CONVERGED AFTER   9 CYCLES          *
               *****************************************************

             **** ENERGY FILE WAS UPDATED (monomer.en.tmp) ****

----------------
TOTAL SCF ENERGY
----------------

Total Energy       :       -100.00979821139316 Eh           -2721.40496 eV

Components:
Nuclear Repulsion  :          5.18334448120219 Eh             141.04597 eV
Electronic Energy  :       -105.19314269259536 Eh           -2862.45094 eV
One Electron Energy:       -150.69219043535128 Eh           -4100.54297 eV
Two Electron Energy:         45.49904774275592 Eh            1238.09203 eV

Virial components:
Potential Energy   :       -200.01428275602436 Eh           -5442.66533 eV
Kinetic Energy     :        100.00448454463120 Eh            2721.26037 eV
Virial Ratio       :          2.00005313428479

---------------
SCF CONVERGENCE
---------------

  Last Energy change         ...    4.0806e-10  Tolerance :   1.0000e-08
  Last MAX-Density change    ...    3.9034e-06  Tolerance :   1.0000e-07
  Last RMS-Density change    ...    6.7793e-07  Tolerance :   5.0000e-09
  Last DIIS Error            ...    5.6687e-04  Tolerance :   5.0000e-07
  Last Orbital Gradient      ...    4.5409e-06  Tolerance :   1.0000e-05
  Last Orbital Rotation      ...    1.5838e-06  Tolerance :   1.0000e-05


Total SCF time: 0 days 0 hours 0 min 0 sec 
Finished LeanSCF after   0.0 sec

Maximum memory used throughout the entire LEANSCF-calculation: 7.0 MB

------------------------------------------------------------------------------
                                ORCA  MP2 
------------------------------------------------------------------------------

Freezing NCore=2 chemical core electrons
MP2 will be done in the AO integral direct mode
The Q1-step will be done using symmetric double matrices
Dimension of the basis                    ...   19
Memory devoted for MP2                    ... 4096 MB   
Memory needed for all in one shot         ...    1 MB
Number of MOs that can be treated together... 148716      
MP2 density construction                  ... relaxed
The MP2 gradient is requested => amplitudes will be stored on disk
Total number of MOs              ...    4
Number of MOs treated per batch  ...    4 
Number of batches necessary      ...    1 
OPERATORS   0/  0 PASS   0
-----------------------------------------------
 MP2 CORRELATION ENERGY   :     -0.182494586 Eh
-----------------------------------------------


---------------------
MP2 DENSITY FORMATION
---------------------

Completing the external part of the density      ... done
Storing the unrelaxed density                    ... done

Calculating G(D)                                 ... done
Completing the Lagrangian                        ... done
Solving the Z-vector equations                   ... 
-------------------
SHARK CP-SCF DRIVER
-------------------

Dimension of the orbital basis          ...     19
Dimension of the CPSCF-problem          ...     70
Number of operators                     ...      1
Max. number of iterations               ...    128
Convergence Tolerance                   ... 1.0e-04
Number of perturbations                 ...      1
Perturbation type                       ... REAL

----------------------------
POPLE LINEAR EQUATION SOLVER
----------------------------

  ITERATION   0:   ||err||_max =   2.9701e-02 (   0.0 sec)
  ITERATION   1:   ||err||_max =   2.1894e-03 (   0.0 sec)
  ITERATION   2:   ||err||_max =   2.7059e-04 (   0.0 sec)
  ITERATION   3:   ||err||_max =   6.3650e-05 (   0.0 sec)
                                                 ... done
Finalizing the relaxed density                   ... done
Transforming P to the AO basis                   ... done
Storing the relaxed density                      ... done

------------------------------------
ENERGY WEIGHTED DENSITY FINALIZATION
------------------------------------

Gathering the parts of the W-matrix              ...                                                      done
Forming the Z-density                            ... done
Transforming Z to the AO basis                   ... done
Calculating G(Z)                                 ... done
Finalizing the W-matrix                          ...                                                      done
Transforming W to the AO basis and storing       ... done

----------------------------------
MP2 DERIVATIVE INTEGRAL GENERATION
----------------------------------

Input SCF Electron Density              ... monomer.scfp
Input Correlated Electron Density       ... monomer.pmp2re
Input Energy Weighted Density           ... monomer.wmp2.tmp
Input Wavefunction Amplitudes           ... monomer.mp2tsaa.tmp

Nuclear repulsion gradient              ... done (  0.0 sec)
HCore & Overlap gradient  (SHARK)       ... done (  0.0 sec)
Analytic two-electron gradient terms    ... 
  Batch handling in the gradient evaluation:
  General contraction                   ... not used
  Memory available                      ... 4094.6 MB
  Memory per occupied orbital in Q2     ...    0.0 MB
  Memory per occupied orbital in Q3     ...    0.0 MB
  Total memory requirement per |i>      ...    0.0 MB
  Number of orbitals treated per batch  ...      4
  Number of batches to be done          ...      1
done (  0.0 sec)

---------------------------------------
MP2 TOTAL ENERGY:     -100.192292798 Eh
---------------------------------------

The final MP2 gradient
  0:   0.00270746  -0.00030775   0.00128080
  1:  -0.00270746   0.00030775  -0.00128080

-----------------------------------
NORM OF THE MP2 GRADIENT:  0.004258
-----------------------------------

Maximum memory used throughout the entire MP2-calculation: 13.0 MB

-------------------------   --------------------
FINAL SINGLE POINT ENERGY      -100.192292797540
-------------------------   --------------------

------------------------------------------------------------------------------
                         ORCA GEOMETRY RELAXATION STEP
------------------------------------------------------------------------------

Reading the OPT-File                    .... done
Getting information on internals        .... done
Copying old internal coords+grads       .... done
Making the new internal coordinates     .... (2022 redundants) done
Validating the new internal coordinates .... (2022 redundants) done
Calculating the B-matrix                .... done
Calculating the G,G- and P matrices     .... done
Transforming gradient to internals      .... done
Projecting the internal gradient        .... done
Number of atoms                         ....   2
Number of internal coordinates          ....   1
Current Energy                          ....  -100.192292798 Eh
Current gradient norm                   ....     0.004258049 Eh/bohr
Maximum allowed component of the step   ....  0.300
Current trust radius                    ....  0.300
Updating the Hessian (BFGS)             .... done
Forming the augmented Hessian           .... done
Diagonalizing the augmented Hessian     .... done
Last element of RFO vector              ....  0.999987432
Lowest eigenvalues of augmented Hessian:
 -0.000015096
Length of the computed step             ....  0.005013661
The final length of the internal step   ....  0.005013661
Converting the step to Cartesian space:
 Initial RMS(Int)=    0.0050136611
Transforming coordinates:
 Iter   0:  RMS(Cart)=    0.0014473193 RMS(Int)=    0.0050136611
done
Storing new coordinates                 .... done
The predicted energy change is          ....    -0.000007548
Previously predicted energy change      ....    -0.000387264
Actually observed energy change         ....    -0.000340105
Ratio of predicted to observed change   ....     0.878226686
New trust radius                        ....     0.450000000

                                .--------------------.
          ----------------------|Geometry convergence|-------------------------
          Item                value                   Tolerance       Converged
          ---------------------------------------------------------------------
          Energy change      -0.0003401054            0.0000050000      NO
          RMS gradient        0.0030108951            0.0001000000      NO
          MAX gradient        0.0030108951            0.0003000000      NO
          RMS step            0.0050136611            0.0020000000      NO
          MAX step            0.0050136611            0.0040000000      NO
          -------------------------------------------------------------------------
          ........................................................
          Max(Bonds)      0.0027      Max(Angles)    0.00
          Max(Dihed)        0.00      Max(Improp)    0.00
          ---------------------------------------------------------------------

The optimization has not yet converged - more geometry cycles are needed


    ---------------------------------------------------------------------------
                         Redundant Internal Coordinates
                            (Angstroem and degrees)

        Definition                    Value    dE/dq     Step     New-Value
    ----------------------------------------------------------------------------
     1. B(H   1,F   0)                0.9188 -0.003011  0.0027    0.9215   
    ----------------------------------------------------------------------------

Geometry step timings:
Preparation and reading OPT file:      0.000 s ( 4.592 %)
Internal coordinates            :      0.000 s ( 4.082 %)
B/P matrices and projection     :      0.000 s (18.367 %)
Hessian update/contruction      :      0.000 s (33.673 %)
Making the step                 :      0.000 s ( 9.184 %)
Converting the step to Cartesian:      0.000 s ( 4.592 %)
Storing new data                :      0.000 s ( 4.082 %)
Checking convergence            :      0.000 s (10.204 %)
Final printing                  :      0.000 s (10.204 %)
Total time                      :      0.000 s

Time for energy+gradient        :      0.175 s
Time for complete geometry iter :      0.183 s

         *************************************************************
         *                GEOMETRY OPTIMIZATION CYCLE   3            *
         *************************************************************
---------------------------------
CARTESIAN COORDINATES (ANGSTROEM)
---------------------------------
  F     -1.438528    2.408009    0.112524
  H     -0.609915    2.313823    0.504510

----------------------------
CARTESIAN COORDINATES (A.U.)
----------------------------
  NO LB      ZA    FRAG     MASS         X           Y           Z
   0 F     9.0000    0    18.998   -2.718425    4.550477    0.212639
   1 H     1.0000    0     1.008   -1.152572    4.372492    0.953386

--------------------------------
INTERNAL COORDINATES (ANGSTROEM)
--------------------------------
 F      0   0   0     0.000000000000     0.00000000     0.00000000
 H      1   0   0     0.921479732217     0.00000000     0.00000000

---------------------------
INTERNAL COORDINATES (A.U.)
---------------------------
 F      0   0   0     0.000000000000     0.00000000     0.00000000
 H      1   0   0     1.741344331849     0.00000000     0.00000000

------------------------------------------------------------------------------
                   ___                                                        
                  /   \      - P O W E R E D   B Y -                         
                 /     \                                                     
                 |  |  |   _    _      __       _____    __    __             
                 |  |  |  | |  | |    /  \     |  _  \  |  |  /  |          
                  \  \/   | |  | |   /    \    | | | |  |  | /  /          
                 / \  \   | |__| |  /  /\  \   | |_| |  |  |/  /          
                |  |  |   |  __  | /  /__\  \  |    /   |      \           
                |  |  |   | |  | | |   __   |  |    \   |  |\   \          
                \     /   | |  | | |  |  |  |  | |\  \  |  | \   \       
                 \___/    |_|  |_| |__|  |__|  |_| \__\ |__|  \__/        
                                                                              
                      - O R C A' S   B I G   F R I E N D -                    
                                      &                                       
                       - I N T E G R A L  F E E D E R -                       
                                                                              
 v1 FN, 2020, v2 2021, v3 2022-2024                                           
------------------------------------------------------------------------------


----------------------
SHARK INTEGRAL PACKAGE
----------------------

Number of atoms                             ...      2
Number of basis functions                   ...     19
Number of shells                            ...      9
Maximum angular momentum                    ...      2
Integral batch strategy                     ... SHARK/LIBINT Hybrid
RI-J (if used) integral strategy            ... SPLIT-RIJ (Revised 2003 algorithm where possible)
Printlevel                                  ...      1
Contraction scheme used                     ... SEGMENTED contraction
Prescreening option                         ... SCHWARTZ
   Thresh                                   ... 2.500e-11
   Tcut                                     ... 2.500e-12
   Tpresel                                  ... 2.500e-12 
Coulomb Range Separation                    ... NOT USED
Exchange Range Separation                   ... NOT USED
Multipole approximations                    ... NOT USED
Finite Nucleus Model                        ... NOT USED
CABS basis                                  ... NOT available
Auxiliary Coulomb fitting basis             ... NOT available
Auxiliary J/K fitting basis                 ... NOT available
Auxiliary Correlation fitting basis         ... NOT available
Auxiliary 'external' fitting basis          ... NOT available

Checking pre-screening integrals            ... done (  0.0 sec) Dimension = 9
   => SHARK Basis and OBASIS are compatible. Storing Pre-screening
Shell pair information
Shell pair cut-off parameter TPreSel        ...   2.5e-12
Total number of shell pairs                 ...        45
Shell pairs after pre-screening             ...        45
Total number of primitive shell pairs       ...       234
Primitive shell pairs kept                  ...       227
          la=0 lb=0:     15 shell pairs
          la=1 lb=0:     15 shell pairs
          la=1 lb=1:      6 shell pairs
          la=2 lb=0:      5 shell pairs
          la=2 lb=1:      3 shell pairs
          la=2 lb=2:      1 shell pairs

Checking whether 4 symmetric matrices of dimension 19 fit in memory
:Max Core in MB      =   4096.00
 MB in use           =      1.22
 MB left             =   4094.78
 MB needed           =      0.01
 Data fit in memory  = YES
Calculating Nuclear repulsion               ... done (  0.0 sec) ENN=      5.168420647997 Eh

Diagonalization of the overlap matrix:
Smallest eigenvalue                        ... 4.617e-02
Time for diagonalization                   ...    0.000 sec
Threshold for overlap eigenvalues          ... 1.000e-07
Number of eigenvalues below threshold      ... 0
Time for construction of square roots      ...    0.000 sec
Total time needed                          ...    0.000 sec

-------------------
DFT GRID GENERATION
-------------------

General Integration Accuracy     IntAcc      ... 4.388
Radial Grid Type                 RadialGrid  ... OptM3 with GC (2021)
Angular Grid (max. ang.)         AngularGrid ... 4 (Lebedev-302)
Angular grid pruning method      GridPruning ... 4 (adaptive)
Weight generation scheme         WeightScheme... mBecke (2022)
Basis function cutoff            BFCut       ... 1.0000e-11
Integration weight cutoff        WCut        ... 1.0000e-14
Partially contracted basis set               ... off
Rotationally invariant grid construction     ... off
Angular grids for H and He will be reduced by one unit

Total number of grid points                  ...     9461
Total number of batches                      ...      148
Average number of points per batch           ...       63
Average number of grid points per atom       ...     4730
Grids setup in   0.0 sec
Initializing property integral containers    ... done (  0.0 sec)

SHARK setup successfully completed in   0.0 seconds

Maximum memory used throughout the entire STARTUP-calculation: 7.6 MB
Occupation numbers will be reassigned to an Aufbau configuration
             **** ENERGY FILE WAS UPDATED (monomer.en.tmp) ****
Finished Guess after   0.0 sec
Maximum memory used throughout the entire GUESS-calculation: 3.4 MB
----------------------------------------D-I-I-S--------------------------------------------
Iteration    Energy (Eh)           Delta-E    RMSDP     MaxDP     DIISErr   Damp  Time(sec)
-------------------------------------------------------------------------------------------
               ***  Starting incremental Fock matrix formation  ***
                              *** Initializing SOSCF ***
---------------------------------------S-O-S-C-F--------------------------------------
Iteration    Energy (Eh)           Delta-E    RMSDP     MaxDP     MaxGrad    Time(sec)
--------------------------------------------------------------------------------------
    1    -100.0096648335351972     0.00e+00  1.64e-04  9.82e-04  8.81e-05     0.0
               *** Restarting incremental Fock matrix formation ***
    2    -100.0096674551215017    -2.62e-06  4.54e-05  2.35e-04  2.20e-04     0.0
    3    -100.0096676967744429    -2.42e-07  2.43e-05  1.50e-04  9.06e-05     0.0
    4    -100.0096677267742820    -3.00e-08  5.31e-06  2.80e-05  3.18e-05     0.0
    5    -100.0096677293748257    -2.60e-09  7.91e-07  5.76e-06  5.17e-06     0.0
                 **** Energy Check signals convergence ****

               *****************************************************
               *                     SUCCESS                       *
               *           SCF CONVERGED AFTER   5 CYCLES          *
               *****************************************************

             **** ENERGY FILE WAS UPDATED (monomer.en.tmp) ****

----------------
TOTAL SCF ENERGY
----------------

Total Energy       :       -100.00966772947375 Eh           -2721.40141 eV

Components:
Nuclear Repulsion  :          5.16842064799678 Eh             140.63988 eV
Electronic Energy  :       -105.17808837747053 Eh           -2862.04129 eV
One Electron Energy:       -150.66697405182884 Eh           -4099.85680 eV
Two Electron Energy:         45.48888567435831 Eh            1237.81551 eV

Virial components:
Potential Energy   :       -200.00878349995972 Eh           -5442.51569 eV
Kinetic Energy     :         99.99911577048597 Eh            2721.11428 eV
Virial Ratio       :          2.00010552052292

---------------
SCF CONVERGENCE
---------------

  Last Energy change         ...    2.6005e-09  Tolerance :   1.0000e-08
  Last MAX-Density change    ...    5.7622e-06  Tolerance :   1.0000e-07
  Last RMS-Density change    ...    7.9122e-07  Tolerance :   5.0000e-09
  Last DIIS Error            ...    1.3318e-03  Tolerance :   5.0000e-07
  Last Orbital Gradient      ...    5.1693e-06  Tolerance :   1.0000e-05
  Last Orbital Rotation      ...    2.6800e-06  Tolerance :   1.0000e-05


Total SCF time: 0 days 0 hours 0 min 0 sec 
Finished LeanSCF after   0.0 sec

Maximum memory used throughout the entire LEANSCF-calculation: 7.1 MB

------------------------------------------------------------------------------
                                ORCA  MP2 
------------------------------------------------------------------------------

Freezing NCore=2 chemical core electrons
MP2 will be done in the AO integral direct mode
The Q1-step will be done using symmetric double matrices
Dimension of the basis                    ...   19
Memory devoted for MP2                    ... 4096 MB   
Memory needed for all in one shot         ...    1 MB
Number of MOs that can be treated together... 148716      
MP2 density construction                  ... relaxed
The MP2 gradient is requested => amplitudes will be stored on disk
Total number of MOs              ...    4
Number of MOs treated per batch  ...    4 
Number of batches necessary      ...    1 
OPERATORS   0/  0 PASS   0
-----------------------------------------------
 MP2 CORRELATION ENERGY   :     -0.182632088 Eh
-----------------------------------------------


---------------------
MP2 DENSITY FORMATION
---------------------

Completing the external part of the density      ... done
Storing the unrelaxed density                    ... done

Calculating G(D)                                 ... done
Completing the Lagrangian                        ... done
Solving the Z-vector equations                   ... 
-------------------
SHARK CP-SCF DRIVER
-------------------

Dimension of the orbital basis          ...     19
Dimension of the CPSCF-problem          ...     70
[...]
      px      :     0.028281
      py      :     0.012251


                     *******************************
                     * LOEWDIN POPULATION ANALYSIS *
                     *******************************

----------------------
LOEWDIN ATOMIC CHARGES
----------------------
   0 F :   -0.197643
   1 H :    0.197643

-------------------------------
LOEWDIN REDUCED ORBITAL CHARGES
-------------------------------
  0 F s       :     3.747183  s :     3.747183
      pz      :     1.875711  p :     5.418784
      px      :     1.589650
      py      :     1.953423
      dz2     :     0.004430  d :     0.031676
      dxz     :     0.009463
      dyz     :     0.003663
      dx2y2   :     0.009837
      dxy     :     0.004283
  1 H s       :     0.641204  s :     0.641204
      pz      :     0.045319  p :     0.161153
      px      :     0.079913
      py      :     0.035921


                      *****************************
                      * MAYER POPULATION ANALYSIS *
                      *****************************

  NA   - Mulliken gross atomic population
  ZA   - Total nuclear charge
  QA   - Mulliken gross atomic charge
  VA   - Mayer's total valence
  BVA  - Mayer's bonded valence
  FA   - Mayer's free valence

  ATOM       NA         ZA         QA         VA         BVA        FA
  0 F      9.3911     9.0000    -0.3911     1.1031     0.8241     0.2790
  1 H      0.6089     1.0000     0.3911     0.8613     0.8241     0.0371

  Mayer bond orders larger than 0.100000
B(  0-F ,  1-H ) :   0.8241 


----------------------------------
MP2 DERIVATIVE INTEGRAL GENERATION
----------------------------------

Input SCF Electron Density              ... monomer.scfp
Input Correlated Electron Density       ... monomer.pmp2re
Input Energy Weighted Density           ... monomer.wmp2.tmp
Input Wavefunction Amplitudes           ... monomer.mp2tsaa.tmp

Nuclear repulsion gradient              ... done (  0.0 sec)
HCore & Overlap gradient  (SHARK)       ... done (  0.0 sec)
Analytic two-electron gradient terms    ... 
  Batch handling in the gradient evaluation:
  General contraction                   ... not used
  Memory available                      ... 4094.5 MB
  Memory per occupied orbital in Q2     ...    0.0 MB
  Memory per occupied orbital in Q3     ...    0.0 MB
  Total memory requirement per |i>      ...    0.0 MB
  Number of orbitals treated per batch  ...      4
  Number of batches to be done          ...      1
done (  0.0 sec)

---------------------------------------
MP2 TOTAL ENERGY:     -100.192299768 Eh
---------------------------------------

The final MP2 gradient
  0:  -0.00000270   0.00000031  -0.00000128
  1:   0.00000270  -0.00000031   0.00000128

-----------------------------------
NORM OF THE MP2 GRADIENT:  0.000004
-----------------------------------

Maximum memory used throughout the entire MP2-calculation: 13.1 MB

-------------------------   --------------------
FINAL SINGLE POINT ENERGY      -100.192299767556
-------------------------   --------------------

                                *** OPTIMIZATION RUN DONE ***


------------------------------------------------------------------------------
                              ORCA PROPERTY CALCULATIONS
------------------------------------------------------------------------------

GBWName                                 ... monomer.gbw
Number of atoms                         ...      2
Number of basis functions               ...     19
Max core memory                         ...   4096 MB

Electric properties:
Dipole moment                           ... YES
Quadrupole moment                       ...  NO
Static polarizability (Dipole/Dipole)   ...  NO
Static polarizability (Dipole/Quad.)    ...  NO
Static polarizability (Quad./Quad.)     ...  NO
Static polarizability (Velocity)        ...  NO
Static hyperpolarizability              ...  NO

Atomic electric properties:
Dipole moment                           ...  NO
Quadrupole moment                       ...  NO
Static polarizability                   ...  NO

Choice of electric origin               ... Center of mass
Position of electric origin             ...    -2.639401     4.541495     0.250022

General magnetic properties:
Magnetizability                         ...  NO

EPR properties:
g-Tensor (aka g-matrix)                 ...  NO
Zero-Field splitting spin-orbit         ...  NO
Zero-field splitting spin-spin          ...  NO
Hyperfine couplings                     ...  NO (   0 nuclei)
Quadrupole couplings                    ...  NO (   0 nuclei)
Contact density                         ...  NO (   0 nuclei)

NMR properties:
Chemical shifts                         ...  NO (   0 nuclei)
Spin-rotation constants                 ...  NO (   0 nuclei)
Spin-spin couplings                     ...  NO (   0 nuclei,    0 pairs)

Choice of magnetic origin               ... GIAO
Position of magnetic origin             ...     0.000000     0.000000     0.000000

Properties with geometric perturbations:
SCF Hessian                             ...  NO
IR spectrum                             ...  NO
VCD spectrum                            ...  NO
X-ray spectroscopy properties:
SCF XES/XAS/RIXS spectra                ...  NO

SCF SOC stabilization energy            ...  NO
Diagonal Born-Oppenheimer correction    ...  NO

-------------
DIPOLE MOMENT
-------------

Method             : SCF
Type of density    : Electron Density
Multiplicity       :   1
Irrep              :   0
Energy             :  -100.0096764473955773 Eh
Basis              : AO
                                X                 Y                 Z
Electronic contribution:     -0.074579872       0.008477252      -0.035280964
Nuclear contribution   :      0.776758309      -0.088291589       0.367455475
                        -----------------------------------------
Total Dipole Moment    :      0.702178438      -0.079814338       0.332174511
                        -----------------------------------------
Magnitude (a.u.)       :      0.780874377
Magnitude (Debye)      :      1.984824930



--------------------
Rotational spectrum 
--------------------
 
Rotational constants in cm-1:             0.000000            20.747938            20.747938 
Rotational constants in MHz :             0.000000        622007.532143        622007.532143 

Dipole components along the rotational axes: 
x,y,z [a.u.] :    -0.780874     0.000000    -0.000000 
x,y,z [Debye]:    -1.984825     0.000000    -0.000000 

 

-------------
DIPOLE MOMENT
-------------

Method             : MP2
Type of density    : Electron Density
Multiplicity       :   1
Level              : Unrelaxed density
Irrep              :   0
Energy             :     0.0000000000000000 Eh
Basis              : AO
                                X                 Y                 Z
Electronic contribution:     -0.082590873       0.009387836      -0.039070671
Nuclear contribution   :      0.776758309      -0.088291589       0.367455475
                        -----------------------------------------
Total Dipole Moment    :      0.694167437      -0.078903753       0.328384805
                        -----------------------------------------
Magnitude (a.u.)       :      0.771965551
Magnitude (Debye)      :      1.962180494



--------------------
Rotational spectrum 
--------------------
 
Rotational constants in cm-1:             0.000000            20.747938            20.747938 
Rotational constants in MHz :             0.000000        622007.532143        622007.532143 

Dipole components along the rotational axes: 
x,y,z [a.u.] :    -0.771966     0.000000    -0.000000 
x,y,z [Debye]:    -1.962180     0.000000    -0.000000 

 

-------------
DIPOLE MOMENT
-------------

Method             : MP2
Type of density    : Electron Density
Multiplicity       :   1
Level              : Relaxed density
Irrep              :   0
Energy             :     0.0000000000000000 Eh
Basis              : AO
                                X                 Y                 Z
Electronic contribution:     -0.108999040       0.012389567      -0.051563393
Nuclear contribution   :      0.776758309      -0.088291589       0.367455475
                        -----------------------------------------
Total Dipole Moment    :      0.667759270      -0.075902023       0.315892083
                        -----------------------------------------
Magnitude (a.u.)       :      0.742597716
Magnitude (Debye)      :      1.887533388



--------------------
Rotational spectrum 
--------------------
 
Rotational constants in cm-1:             0.000000            20.747938            20.747938 
Rotational constants in MHz :             0.000000        622007.532143        622007.532143 

Dipole components along the rotational axes: 
x,y,z [a.u.] :    -0.742598     0.000000    -0.000000 
x,y,z [Debye]:    -1.887533     0.000000    -0.000000 

 

Dipole moment calculation done in   0.0 sec 

Maximum memory used throughout the entire PROP-calculation: 1.5 MB

----------------------------------------------------------------------------
                           ORCA NUMERICAL FREQUENCIES
----------------------------------------------------------------------------

Number of atoms                ... 2
Central differences            ... used
Translation invariance         ... used
Number of displacements        ... 12 - 6
Numerical increment            ... 5.000e-03 bohr
IR-spectrum generation         ... on
Raman-spectrum generation      ... off
Surface Crossing Hessian       ... off

The output will be reduced. Please look at the following files:
SCF program output             ... >monomer.lastscf
Integral program output        ... >monomer.lastint
Gradient program output        ... >monomer.lastgrad
Dipole moment program output   ... >monomer.lastmom

	<< Calculating gradient on displaced geometry   1 (of   6) >>
	<< Calculating gradient on displaced geometry   2 (of   6) >>
	<< Calculating gradient on displaced geometry   3 (of   6) >>
	<< Calculating gradient on displaced geometry   4 (of   6) >>
	<< Calculating gradient on displaced geometry   5 (of   6) >>
	<< Calculating gradient on displaced geometry   6 (of   6) >>

-----------------------
VIBRATIONAL FREQUENCIES
-----------------------

Scaling factor for frequencies =  1.000000000  (already applied!)

     0:       0.00 cm**-1
     1:       0.00 cm**-1
     2:       0.00 cm**-1
     3:       0.00 cm**-1
     4:       0.00 cm**-1
     5:    4188.37 cm**-1


------------
NORMAL MODES
------------

These modes are the Cartesian displacements weighted by the diagonal matrix
M(i,i)=1/sqrt(m[i]) where m[i] is the mass of the displaced atom
Thus, these vectors are normalized but *not* orthogonal

                  0          1          2          3          4          5    
      0       0.000000   0.000000   0.000000   0.000000   0.000000  -0.047644
      1       0.000000   0.000000   0.000000   0.000000   0.000000   0.005416
      2       0.000000   0.000000   0.000000   0.000000   0.000000  -0.022539
      3       0.000000   0.000000   0.000000   0.000000   0.000000   0.897958
      4       0.000000   0.000000   0.000000   0.000000   0.000000  -0.102068
      5       0.000000   0.000000   0.000000   0.000000   0.000000   0.424790


-----------
IR SPECTRUM
-----------

 Mode   freq       eps      Int      T**2         TX        TY        TZ
       cm**-1   L/(mol*cm) km/mol    a.u.
----------------------------------------------------------------------------
  5:   4188.37   0.016539   83.58  0.001232  ( 0.031584 -0.003573  0.014898)

* The epsilon (eps) is given for a Dirac delta lineshape.
** The dipole moment derivative (T) already includes vibrational overlap.

The first frequency considered to be a vibration is 5
The total number of vibrations considered is 1


--------------------------
THERMOCHEMISTRY AT 298.15K
--------------------------

Temperature         ...   298.15 K
Pressure            ...     1.00 atm
Total Mass          ...    20.01 AMU
Quasi RRHO          ...     True
Cut-Off Frequency   ...     1.00 cm^-1
The molecule is recognized as being linear

Throughout the following assumptions are being made:
  (1) The electronic state is orbitally nondegenerate
  (2) There are no thermally accessible electronically excited states
  (3) Hindered rotations indicated by low frequency modes are not
      treated as such but are treated as vibrations and this may
      cause some error
  (4) All equations used are the standard statistical mechanics
      equations for an ideal gas
  (5) All vibrations are strictly harmonic

freq.    4188.37  E(vib)   ...       0.00 

------------
INNER ENERGY
------------

The inner energy is: U= E(el) + E(ZPE) + E(vib) + E(rot) + E(trans)
    E(el)   - is the total energy from the electronic structure calculation
              = E(kin-el) + E(nuc-el) + E(el-el) + E(nuc-nuc)
    E(ZPE)  - the the zero temperature vibrational energy from the frequency calculation
    E(vib)  - the the finite temperature correction to E(ZPE) due to population
              of excited vibrational states
    E(rot)  - is the rotational thermal energy
    E(trans)- is the translational thermal energy

Summary of contributions to the inner energy U:
Electronic energy                ...   -100.19229983 Eh
Zero point energy                ...      0.00954181 Eh       5.99 kcal/mol
Thermal vibrational correction   ...      0.00000000 Eh       0.00 kcal/mol
Thermal rotational correction    ...      0.00094418 Eh       0.59 kcal/mol
Thermal translational correction ...      0.00141627 Eh       0.89 kcal/mol
-----------------------------------------------------------------------
Total thermal energy                   -100.18039757 Eh


Summary of corrections to the electronic energy:
(perhaps to be used in another calculation)
Total thermal correction                  0.00236045 Eh       1.48 kcal/mol
Non-thermal (ZPE) correction              0.00954181 Eh       5.99 kcal/mol
-----------------------------------------------------------------------
Total correction                          0.01190226 Eh       7.47 kcal/mol


--------
ENTHALPY
--------

The enthalpy is H = U + kB*T
                kB is Boltzmann's constant
Total thermal energy              ...   -100.18039757 Eh 
Thermal Enthalpy correction       ...      0.00094421 Eh       0.59 kcal/mol
-----------------------------------------------------------------------
Total Enthalpy                    ...   -100.17945336 Eh


Note: Rotational entropy computed according to Herzberg 
Infrared and Raman Spectra, Chapter V,1, Van Nostrand Reinhold, 1945 
Point Group:  C(inf)v, Symmetry Number:   1  
Rotational constants in cm-1:     0.000000    20.747956    20.747956 

Vibrational entropy computed according to the QRRHO of S. Grimme
Chem.Eur.J. 2012 18 9955 using a reference frequency of 100.0 cm-1


-------
ENTROPY
-------

The entropy contributions are T*S = T*(S(el)+S(vib)+S(rot)+S(trans))
     S(el)   - electronic entropy
     S(vib)  - vibrational entropy
     S(rot)  - rotational entropy
     S(trans)- translational entropy
The entropies will be listed as multiplied by the temperature to get
units of energy

Electronic entropy                ...      0.00000000 Eh      0.00 kcal/mol
Vibrational entropy               ...     -0.00000000 Eh     -0.00 kcal/mol
Rotational entropy                ...      0.00311708 Eh      1.96 kcal/mol
Translational entropy             ...      0.01659227 Eh     10.41 kcal/mol
-----------------------------------------------------------------------
Final entropy term                ...      0.01970935 Eh     12.37 kcal/mol


-------------------
GIBBS FREE ENERGY
-------------------

The Gibbs free energy is G = H - T*S

Total enthalpy                    ...   -100.17945336 Eh 
Total entropy correction          ...     -0.01970935 Eh    -12.37 kcal/mol
-----------------------------------------------------------------------
Final Gibbs free energy         ...   -100.19916271 Eh

For completeness - the Gibbs free energy minus the electronic energy
G-E(el)                           ...     -0.00686288 Eh     -4.31 kcal/mol



--------------------------------
SUGGESTED CITATIONS FOR THIS RUN
--------------------------------

Below you find a list of papers that are relevant to this ORCA run
We neither can nor want to force you to cite these papers, but we appreciate if you do
You receive ORCA, which is the product of decades of hard work by many enthusiastic individuals, for free
The only thing we kindly ask in return is that you cite our papers,
We deeply appreciate it, if you show your appreciation for ORCA by not just citing the generic ORCA reference.

Please note that relegating all ORCA citations to the supporting information does *not* help us.
SI sections are not indexed - citations you put there will not count into any citation statistics
But we need these citations in order to attract the funding resources that allow us to do what we are doing

Therefore, if you are a happy ORCA user, please consider citing a few of the papers listed below in the main body of your paper

In addition to the list printed below, the program has created the file monomer.bibtex that contains the list in bibtex format
You can import this file easily into all common literature databanks and citation aid programs


List of essential papers. We consider these as the minimum necessary citations

  1. Neese, F.
     Software update: the ORCA program system, version 6.0
     WIRES Comput. Molec. Sci. 2025 15(1), e70019
     doi.org/10.1002/wcms.7019

List of papers to cite with high priority. The work reported in these papers was absolutely
necessary for this run to complete.
Our perspective: the developers of density functionals and basis sets usually get cited in chemistry papers
Good! But without the algorithms to do something with them, the functionals or basis sets would not do anything.
Hence, in our opinion, the algorithm design and method developments papers are equally worthy of getting cited

  1. Neese, F.
     The SHARK Integral Generation and Digestion System
     J. Comp. Chem. 2022 44(3), 381
     doi.org/10.1002/jcc.26942

List of suggested additional citations. These are papers that are important in the 'surrounding' of 
of this run, or papers that preceded the highly important papers. If you like your results we are grateful for a citation.

  1. Neese, F.
     The ORCA program system
     WIRES Comput. Molec. Sci. 2012 2(1), 73-78
     doi.org/10.1002/wcms.81
  2. Neese, F.
     Software update: the ORCA program system, version 4.0
     WIRES Comput. Molec. Sci. 2018 8(1), 1-6
     doi.org/10.1002/wcms.1327
  3. Neese, F.; Wennmohs, F.; Becker, U.; Riplinger, C.
     The ORCA quantum chemistry program package
     J. Chem. Phys. 2020 152(22), 224108
     doi.org/10.1063/5.0004608
  4. Neese, F.
     Software update: The ORCA program system—Version 5.0
     WIRES Comput. Molec. Sci. 2022 12(1), e1606
     doi.org/10.1002/wcms.1606

List of optional additional citations

  1. Neese, F.
     Approximate second-order SCF convergence for spin unrestricted wavefunctions
     Chem. Phys. Lett. 2000 325(1-3), 93-98
     doi.org/10.1016/s0009-2614(00)00662-x

Timings for individual modules:

Sum of individual times          ...        3.402 sec (=   0.057 min)
Startup calculation              ...        0.223 sec (=   0.004 min)   6.6 %
SCF iterations                   ...        0.270 sec (=   0.005 min)   7.9 %
Property calculations            ...        0.027 sec (=   0.000 min)   0.8 %
MP2 module                       ...        0.380 sec (=   0.006 min)  11.2 %
Geometry relaxation              ...        0.003 sec (=   0.000 min)   0.1 %
Numerical frequency calculation  ...        2.499 sec (=   0.042 min)  73.5 %
                             ****ORCA TERMINATED NORMALLY****
TOTAL RUN TIME: 0 days 0 hours 0 minutes 3 seconds 322 msec
