
                                 *****************
                                 * O   R   C   A *
                                 *****************

                                            #,                                       
                                            ###                                      
                                            ####                                     
                                            #####                                    
                                            ######                                   
                                           ########,                                 
                                     ,,################,,,,,                         
                               ,,#################################,,                 
                          ,,##########################################,,             
                       ,#########################################, ''#####,          
                    ,#############################################,,   '####,        
                  ,##################################################,,,,####,       
                ,###########''''           ''''###############################       
              ,#####''   ,,,,##########,,,,          '''####'''          '####       
            ,##' ,,,,###########################,,,                        '##       
           ' ,,###''''                  '''############,,,                           
         ,,##''                                '''############,,,,        ,,,,,,###''
      ,#''                                            '''#######################'''  
     '                                                          ''''####''''         
             ,#######,   #######,   ,#######,      ##                                
            ,#'     '#,  ##    ##  ,#'     '#,    #''#        ,####,    ,#,          
            ##       ##  ##   ,#'  ##            #'  '#       #'       ,# #          
            ##       ##  #######   ##           ,######,      #####,      #          
            '#,     ,#'  ##    ##  '#,     ,#' ,#      #,     #,   #      #          
             '#######'   ##     ##  '#######'  #'      '#     '####' #    #          



                #########################################################
                #                        -***-                          #
                #          Department of theory and spectroscopy        #
                #                                                       #
                #                      Frank Neese                      #
                #                                                       #
                #     Directorship, Architecture, Infrastructure        #
                #                    SHARK, DRIVERS                     #
                #        Core code/Algorithms in most modules           #
                #                                                       #
                #        Max Planck Institute fuer Kohlenforschung      #
                #                Kaiser Wilhelm Platz 1                 #
                #                 D-45470 Muelheim/Ruhr                 #
                #                      Germany                          #
                #                                                       #
                #                  All rights reserved                  #
                #                        -***-                          #
                #########################################################


                         Program Version 6.1.0  -  RELEASE   -
                                (GIT: $679e74b$)
                          ($2025-06-10 18:02:51 +0200$)


 With contributions from (in alphabetic order):
[Max-Planck-Institut fuer Kohlenforschung]                               
  Daniel Aravena         : Magnetic Suceptibility                        
  Michael Atanasov       : Ab Initio Ligand Field Theory (pilot matlab implementation)
  Alexander A. Auer      : GIAO ZORA, VPT2 properties, NMR spectrum      
  Ute Becker             : All parallelization in ORCA, NUMFREQ, NUMCALC 
  Giovanni Bistoni       : ED, misc. LED, open-shell LED, HFLD           
  Dmytro Bykov           : pre 5.0 version of the SCF Hessian            
  Marcos Casanova-Páez   : Triplet and SCS-CIS(D). UHF-(DLPNO)-IP/EA/STEOM-CCSD. UHF-CVS-IP/STEOM-CCSD   
  Vijay G. Chilkuri      : MRCI spin determinant printing, contributions to CSF-ICE 
  Pauline Colinet        : FMM embedding                                 
  Dipayan Datta          : RHF DLPNO-CCSD density                        
  Achintya Kumar Dutta   : EOM-CC, STEOM-CC                              
  Nicolas Foglia         : Exact transition moments, OPA infrastructure, MCD improvements    
  Dmitry Ganyushin       : Spin-Orbit,Spin-Spin,Magnetic field MRCI      
  Miquel Garcia-Rates    : C-PCM and meta-GGA Hessian, CCSD/C-PCM, Gaussian charge scheme 
  Tiago L. C. Gouveia    : GS-ROHF, GS-ROCIS                             
  Yang Guo               : DLPNO-NEVPT2, F12-NEVPT2, CIM, IAO-localization        
  Andreas Hansen         : Spin unrestricted coupled pair/coupled cluster methods 
  Ingolf Harden          : AUTO-CI MPn and infrastructure                
  Benjamin Helmich-Paris : MC-RPA, TRAH-(SCF,CASSCF), AVAS, COSX integrals, SCF dyn. polar., MC-PDFT, srDFT 
  Lee Huntington         : MR-EOM, pCC                                   
  Robert Izsak           : Overlap fitted RIJCOSX, COSX-SCS-MP3, EOM     
  Riya Kayal             : Wick's Theorem for AUTO-CI, AUTO-CI UHF-CCSDT 
  Emily Kempfer          : AUTO-CI RHF CISDT and CCSDT, approximate NEVPT4
  Christian Kollmar      : KDIIS, OOCD, Brueckner-CCSD(T), CCSD density, CASPT2, CASPT2-K, improved NEVPT2 
  Axel Koslowski         : Symmetry handling                             
  Simone Kossmann        : meta-GGA functionals, TD-DFT gradient, OOMP2, (MP2 Hessian; deprecated post 5.0) 
  Lucas Lang             : DCDCAS, Hyperfine gauge corrections, ICE-SOC+SSC
  Marvin Lechner         : AUTO-CI (C++ implementation), FIC-MRCC        
  Spencer Leger          : CASSCF response                               
  Dagmar Lenk            : GEPOL surface, SMD, ORCA-2-JSON               
  Dimitrios Liakos       : Extrapolation schemes; Compound Job, Property file
  Dimitrios Manganas     : Further ROCIS development; embedding schemes. LFT, Crystal Embedding 
  Dimitrios Pantazis     : SARC Basis sets                               
  Anastasios Papadopoulos: AUTO-CI, single reference methods and gradients 
  Taras Petrenko         : pre 6.0 DFT Hessian and TD-DFT gradient,  ECA, NRVS 
  Petra Pikulova         : Analytic Raman intensities                    
  Peter Pinski           : DLPNO-MP2, DLPNO-MP2 Gradient                 
  Shashank Vittal Rao    : ES-AILFT, MagRelax                            
  Christoph Reimann      : Effective Core Potentials                     
  Marius Retegan         : Local ZFS, SOC                                
  Christoph Riplinger    : Optimizer, TS searches, QM/MM, DLPNO-CCSD(T), (RO)-DLPNO pert. Triples 
  Michael Roemelt        : Original ROCIS implementation, recursive CI coupling coefficients
  Masaaki Saitow         : Open-shell DLPNO-CCSD energy and density      
  Barbara Sandhoefer     : DKH picture change effects                    
  Yorick L. A. Schmerwitz: GMF and freeze-and-release deltaSCF, NEB S-IDPP initial path                    
  Kantharuban Sivalingam : CASSCF convergence/infrastructure, NEVPT2, NEVPT3, NEVPT4(SD), FIC-MRCI and CEPA variants
  Bernardo de Souza      : ESD, SOC TD-DFT                               
  Georgi L. Stoychev     : AutoAux, RI-MP2 NMR, DLPNO-MP2 response, X2C  
  Van Anh Tran           : RI-MP2 g-tensors                              
  Willem Van den Heuvel  : Paramagnetic NMR                              
  Zikuan Wang            : NOTCH, Electric field optimization            
  Frank Wennmohs         : Technical directorship and infrastructure     
  Hang Xu                : AUTO-CI-Response properties                   
                                                                         
[FACCTs GmbH]                                                            
  Markus Bursch, Nicolas Foglia, Miquel Garcia-Rates, Ingolf Harden, Hagen Neugebauer, Anastasios Papadopoulos, 
  Christoph Riplinger, Bernardo de Souza, Georgi L. Stoychev                                                    
                                                                 
  APM, various basis sets, CI-OPT, improved COSX, DLPNO-Multilevel,           
  DOCKER, DRACO, updates on ESD, Fragmentator, GOAT, IRC, LR-CPCM, L-BFGS, MBIS, meta-GGA TD-DFT gradient, ML-optimized integration grids, 
  MM, NACMEs, nearIR, NEB, NEB-TS, NL-DFT gradient (VV10), 2- and 3-layer-ONIOM, interface openCOSMO-RS, QMMM,   
  Crystal-QMMM, RESP, rigid body optimization, SF, symmetry and pop. for TD-DFT, various functionals, SOLVATOR                                   
                                                                         
[Other institutions]                                                     
  V. Asgeirsson          : NEB                                           
  Christoph Bannwarth    : sTDA-DFT, sTD-DFT, PBEh-3c, B97-3c, D3        
  Giovanni Bistoni       : ETS/NOCV, ADLD/ADEX, COVALED                  
  Martin Brehm           : Molecular dynamics                            
  Ronald Cardenas        : ETS/NOCV                                      
  Martina Colucci        : COVALED                                       
  Sebastian Ehlert       : rSCAN, r2SCAN, r2SCAN-3c, D4, dhf basis sets  
  Marvin Friede          : D4 for Fr, Ra, Ac-Lr                          
  Lars Goerigk           : TD-DFT with DH, B97 family of functionals     
  Stefan Grimme          : VdW corrections, initial TS optimization, DFT functionals, gCP, sTDA/sTD-DF 
  Waldemar Hujo          : DFT-NL                                        
  H. Jonsson             : NEB                                           
  Holger Kruse           : gCP                                           
  Marcel Mueller         : wB97X-3c, vDZP basis set                      
  Hagen Neugebauer       : wr2SCAN, Native XTB                           
  Gianluca Regni         : ADLD/ADEX                                     
  Tobias Risthaus        : pre 6.0 range-separated hybrid DFT and stability analysis
  Lukas Wittmann         : regularized MP2, r2SCAN double-hybrids, wr2SCAN        
                                                                         
We gratefully acknowledge several colleagues who have allowed us to      
interface, adapt or use parts of their codes:                            
  Ed Valeev, F. Pavosevic, A. Kumar             : LibInt (2-el integral package), F12 methods 
  Garnet Chan, S. Sharma, J. Yang, R. Olivares  : DMRG                   
  Ulf Ekstrom                                   : XCFun DFT Library      
  Mihaly Kallay                                 : mrcc  (arbitrary order and MRCC methods)
  Frank Weinhold                                : gennbo (NPA and NBO analysis)           
  Simon Mueller                                 : openCOSMO-RS                            
  Christopher J. Cramer and Donald G. Truhlar   : smd solvation model                     
  S Lehtola, MJT Oliveira, MAL Marques          : LibXC Library                           
  Liviu Ungur et al                             : ANISO software                          


 Your calculation uses the libint2 library for the computation of 2-el integrals
 For citations please refer to: http://libint.valeyev.net

 Your ORCA version has been built with support for libXC version: 7.0.0
 For citations please refer to: https://libxc.gitlab.io

 This ORCA versions uses:
   CBLAS   interface :  Fast vector & matrix operations
   LAPACKE interface :  Fast linear algebra routines
   SCALAPACK package :  Parallel linear algebra routines
   Shared memory     :  Shared parallel matrices
   BLAS/LAPACK       :  OpenBLAS 0.3.29  USE64BITINT DYNAMIC_ARCH NO_AFFINITY Haswell SINGLE_THREADED
        Core in use  :  Haswell
   Copyright (c) 2011-2014, The OpenBLAS Project


  ***********************************
  * Starting time: Sun Aug 10 13:05:21 2025
  * Host name:     CHEMLAB02
  * Process ID:    1477150
  * Working dir.:  /home/vivek/mm/lab4/ammonia
  ***********************************

================================================================================

----- Orbital basis set information -----
Your calculation utilizes the basis: 6-31G(d,p)
   H-He, Li-Ne : W. J. Hehre, R. Ditchfield and J.A. Pople, J. Chem. Phys. 56, 2257 (1972).
                 Note: He and Ne are unpublished basis sets taken from the Gaussian program.
                 Note: Li and B from J. D. Dill and J. A. Pople, J. Chem. Phys. 62, 2921 (1975).
   Na - Ar     : M. M. Francl, W. J. Pietro, W. J. Hehre, J. S. Binkley, M. S. Gordon, 
                 D. J. DeFrees and J. A. Pople, J. Chem. Phys. 77, 3654 (1982).
   K - Zn      : V. A. Rassolov, J. A. Pople, M. A. Ratner, and T. L. Windus, J. Chem. Phys. 109, 1223 (1998).

================================================================================
                                        WARNINGS
                       Please study these warnings very carefully!
================================================================================


WARNING: The frozen-core approximation for MP2-gradient calculations is turned on by default.

WARNING: Geometry Optimization
  ===> : Switching off AutoStart
         For restart on a previous wavefunction, please use MOREAD

WARNING: Post HF methods need fully converged wavefunctions
  ===> : Setting SCFConvForced true
         You can overwrite this default with %scf ConvForced false 


================================================================================
                                       INPUT FILE
================================================================================
NAME = ammonia.inp
|  1> ! MP2 6-31G(d,p) optts numfreq irc
|  2> 
|  3> * xyz 0 1
|  4> N     -1.614793    0.772383    0.000000
|  5> H     -2.302069    0.574089   -0.741102
|  6> H     -0.767917    1.303838    0.218676
|  7> H     -1.856018    0.234689    0.844746
|  8> *
|  9> 
| 10> 
| 11>                          ****END OF INPUT****
================================================================================

                       *****************************
                       * Geometry Optimization Run *
                       *****************************

Geometry optimization settings:
Update method            Update   .... Bofill
Choice of coordinates    CoordSys .... (2022) Redundant Internals
Initial Hessian          InHess   .... Almloef's Model
Max. no of cycles        MaxIter  .... 50

Convergence Tolerances:
Energy Change            TolE     ....  5.0000e-06 Eh
Max. Gradient            TolMAXG  ....  3.0000e-04 Eh/bohr
RMS Gradient             TolRMSG  ....  1.0000e-04 Eh/bohr
Max. Displacement        TolMAXD  ....  4.0000e-03 bohr
RMS Displacement         TolRMSD  ....  2.0000e-03 bohr
Strict Convergence                .... False

------------------------------------------------------------------------------
                        ORCA OPTIMIZATION COORDINATE SETUP
------------------------------------------------------------------------------

The optimization will be done in redundant internal coordinates (2022)
Making redundant internal coordinates   ...  (2022 redundants) done
Following TS mode number                ...     0
Evaluating the initial hessian          ...  (Almloef) done
Evaluating the coordinates              ...  done
Calculating the B-matrix                .... done
Calculating the G-matrix                .... done
The number of degrees of freedom        ....    7

    -----------------------------------------------------------------
                    Redundant Internal Coordinates


    -----------------------------------------------------------------
         Definition                    Initial Value    Approx d2E/dq
    -----------------------------------------------------------------
      1. B(H   1,N   0)                  1.0300         0.402055   
      2. B(H   2,N   0)                  1.0235         0.411838   
      3. B(H   3,N   0)                  1.0300         0.402056   
      4. A(H   1,N   0,H   3)          109.4712         0.296248   
      5. A(H   2,N   0,H   3)          106.8361         0.297379   
      6. A(H   1,N   0,H   2)          143.6913         0.297379   
      7. I(H   1,H   3,H   2,N   0)     -0.2987         0.024473   
    -----------------------------------------------------------------

Number of atoms                         .... 4
Number of degrees of freedom            .... 7


         *************************************************************
         *                GEOMETRY OPTIMIZATION CYCLE   1            *
         *************************************************************
---------------------------------
CARTESIAN COORDINATES (ANGSTROEM)
---------------------------------
  N     -1.614793    0.772383    0.000000
  H     -2.302069    0.574089   -0.741102
  H     -0.767917    1.303838    0.218676
  H     -1.856018    0.234689    0.844746

----------------------------
CARTESIAN COORDINATES (A.U.)
----------------------------
  NO LB      ZA    FRAG     MASS         X           Y           Z
   0 N     7.0000    0    14.007   -3.051517    1.459592    0.000000
   1 H     1.0000    0     1.008   -4.350280    1.084871   -1.400480
   2 H     1.0000    0     1.008   -1.451153    2.463897    0.413238
   3 H     1.0000    0     1.008   -3.507366    0.443498    1.596339

--------------------------------
INTERNAL COORDINATES (ANGSTROEM)
--------------------------------
 N      0   0   0     0.000000000000     0.00000000     0.00000000
 H      1   0   0     1.030000478163     0.00000000     0.00000000
 H      1   2   0     1.023456188304   143.69132107     0.00000000
 H      1   2   3     1.030000069309   109.47120813   180.51215117

---------------------------
INTERNAL COORDINATES (A.U.)
---------------------------
 N      0   0   0     0.000000000000     0.00000000     0.00000000
 H      1   0   0     1.946418821536     0.00000000     0.00000000
 H      1   2   0     1.934051905961   143.69132107     0.00000000
 H      1   2   3     1.946418048914   109.47120813   180.51215117

---------------------
BASIS SET INFORMATION
---------------------
There are 2 groups of distinct atoms

 Group   1 Type N   : 10s4p1d contracted to 3s2p1d pattern {631/31/1}
 Group   2 Type H   : 4s1p contracted to 2s1p pattern {31/1}

Atom   0N    basis set group =>   1
Atom   1H    basis set group =>   2
Atom   2H    basis set group =>   2
Atom   3H    basis set group =>   2
------------------------------------------------------------------------------
                             ORCA STARTUP CALCULATIONS
------------------------------------------------------------------------------
------------------------------------------------------------------------------
                   ___                                                        
                  /   \      - P O W E R E D   B Y -                         
                 /     \                                                     
                 |  |  |   _    _      __       _____    __    __             
                 |  |  |  | |  | |    /  \     |  _  \  |  |  /  |          
                  \  \/   | |  | |   /    \    | | | |  |  | /  /          
                 / \  \   | |__| |  /  /\  \   | |_| |  |  |/  /          
                |  |  |   |  __  | /  /__\  \  |    /   |      \           
                |  |  |   | |  | | |   __   |  |    \   |  |\   \          
                \     /   | |  | | |  |  |  |  | |\  \  |  | \   \       
                 \___/    |_|  |_| |__|  |__|  |_| \__\ |__|  \__/        
                                                                              
                      - O R C A' S   B I G   F R I E N D -                    
                                      &                                       
                       - I N T E G R A L  F E E D E R -                       
                                                                              
 v1 FN, 2020, v2 2021, v3 2022-2024                                           
------------------------------------------------------------------------------


----------------------
SHARK INTEGRAL PACKAGE
----------------------

Number of atoms                             ...      4
Number of basis functions                   ...     29
Number of shells                            ...     15
Maximum angular momentum                    ...      2
Integral batch strategy                     ... SHARK/LIBINT Hybrid
RI-J (if used) integral strategy            ... SPLIT-RIJ (Revised 2003 algorithm where possible)
Printlevel                                  ...      1
Contraction scheme used                     ... SEGMENTED contraction
Prescreening option                         ... SCHWARTZ
   Thresh                                   ... 2.500e-11
   Tcut                                     ... 2.500e-12
   Tpresel                                  ... 2.500e-12 
Coulomb Range Separation                    ... NOT USED
Exchange Range Separation                   ... NOT USED
Multipole approximations                    ... NOT USED
Finite Nucleus Model                        ... NOT USED
CABS basis                                  ... NOT available
Auxiliary Coulomb fitting basis             ... NOT available
Auxiliary J/K fitting basis                 ... NOT available
Auxiliary Correlation fitting basis         ... NOT available
Auxiliary 'external' fitting basis          ... NOT available

Checking pre-screening integrals            ... done (  0.0 sec) Dimension = 15
   => SHARK Basis and OBASIS are compatible. Storing Pre-screening
Shell pair information
Shell pair cut-off parameter TPreSel        ...   2.5e-12
Total number of shell pairs                 ...       120
Shell pairs after pre-screening             ...       120
Total number of primitive shell pairs       ...       495
Primitive shell pairs kept                  ...       473
          la=0 lb=0:     45 shell pairs
          la=1 lb=0:     45 shell pairs
          la=1 lb=1:     15 shell pairs
          la=2 lb=0:      9 shell pairs
          la=2 lb=1:      5 shell pairs
          la=2 lb=2:      1 shell pairs

Checking whether 4 symmetric matrices of dimension 29 fit in memory
:Max Core in MB      =   4096.00
 MB in use           =      1.32
 MB left             =   4094.68
 MB needed           =      0.01
 Data fit in memory  = YES
Calculating Nuclear repulsion               ... done (  0.0 sec) ENN=     11.718777609449 Eh

Diagonalization of the overlap matrix:
Smallest eigenvalue                        ... 3.760e-02
Time for diagonalization                   ...    0.006 sec
Threshold for overlap eigenvalues          ... 1.000e-07
Number of eigenvalues below threshold      ... 0
Time for construction of square roots      ...    0.000 sec
Total time needed                          ...    0.006 sec

-------------------
DFT GRID GENERATION
-------------------

General Integration Accuracy     IntAcc      ... 4.388
Radial Grid Type                 RadialGrid  ... OptM3 with GC (2021)
Angular Grid (max. ang.)         AngularGrid ... 4 (Lebedev-302)
Angular grid pruning method      GridPruning ... 4 (adaptive)
Weight generation scheme         WeightScheme... mBecke (2022)
Basis function cutoff            BFCut       ... 1.0000e-11
Integration weight cutoff        WCut        ... 1.0000e-14
Partially contracted basis set               ... off
Rotationally invariant grid construction     ... off
Angular grids for H and He will be reduced by one unit

Total number of grid points                  ...    16022
Total number of batches                      ...      253
Average number of points per batch           ...       63
Average number of grid points per atom       ...     4006
Grids setup in   0.0 sec
Initializing property integral containers    ... done (  0.0 sec)

SHARK setup successfully completed in   0.1 seconds

Maximum memory used throughout the entire STARTUP-calculation: 7.7 MB
-------------------------------------------------------------------------------
                                 ORCA GUESS
                   Start orbitals & Density for SCF / CASSCF
-------------------------------------------------------------------------------

------------
SCF SETTINGS
------------
Hamiltonian:
 Ab initio Hamiltonian  Method          .... Hartree-Fock(GTOs)


General Settings:
 Integral files         IntName         .... ammonia
 Hartree-Fock type      HFTyp           .... RHF
 Total Charge           Charge          ....    0
 Multiplicity           Mult            ....    1
 Number of Electrons    NEL             ....   10
 Basis Dimension        Dim             ....   29
 Nuclear Repulsion      ENuc            ....     11.7187776094 Eh

Convergence Acceleration:
 AO-DIIS                CNVDIIS         .... on
   Start iteration      DIISMaxIt       ....    12
   Startup error        DIISStart       ....  0.200000
   # of expansion vecs  DIISMaxEq       ....     5
   Bias factor          DIISBfac        ....   1.050
   Max. coefficient     DIISMaxC        ....  10.000
 MO-DIIS                CNVKDIIS        .... off
 Trust-Rad. Augm. Hess. CNVTRAH         .... auto
   Auto Start mean grad. ratio tolernc. ....  1.125000
   Auto Start start iteration           ....    50
   Auto Start num. interpolation iter.  ....    10
   Max. Number of Micro iterations      ....    24
   Max. Number of Macro iterations      .... Maxiter - #DIIS iter
   Number of Davidson start vectors     ....     2
   Converg. threshold    (grad. norm)   ....   1.000e-05
   Grad. Scal. Fac. for Micro threshold ....   0.100
   Minimum threshold for Micro iter.    ....   1.000e-02
   NR start threshold (gradient norm)   ....   1.000e-04
   Initial trust radius                 ....   0.400
   Minimum AH scaling param. (alpha)    ....   1.000
   Maximum AH scaling param. (alpha)    .... 1000.000
   Quad. conv. algorithm                .... NR
   White noise on init. David. guess    .... on
   Maximum white noise                  ....   0.010
   Pseudo random numbers                .... off
   Inactive MOs                         .... canonical
   Orbital update algorithm             .... Taylor
   Preconditioner                       .... Diag
   Full preconditioner red. dimension   ....   250
 SOSCF                 CNVSOSCF           .... on
   Start iteration     SOSCFMaxIt         ....   150
   Startup grad/error  SOSCFStart         ....  0.003300
   Hessian update      SOSCFHessUp        .... L-BFGS
   Autom. constraints  SOSCFAutoConstrain .... off
 Level Shifting         CNVShift        .... on
   Level shift para.    LevelShift      ....    0.2500
   Turn off err/grad.   ShiftErr        ....    0.0010
 Zerner damping         CNVZerner       .... off
 Static damping         CNVDamp         .... on
   Fraction old density DampFac         ....    0.7000
   Max. Damping (<1)    DampMax         ....    0.9800
   Min. Damping (>=0)   DampMin         ....    0.0000
   Turn off err/grad.   DampErr         ....    0.1000

SCF Procedure:
 Maximum # iterations   MaxIter         ....   125
 SCF integral mode      SCFMode         .... Direct
   Integral package                     .... SHARK and LIBINT hybrid scheme
 Reset frequency        DirectResetFreq ....    20
 Integral Threshold     Thresh          ....  2.500e-11 Eh
 Primitive CutOff       TCut            ....  2.500e-12 Eh

Convergence Tolerance:
 Convergence Check Mode ConvCheckMode   .... Total+1el-Energy
 Convergence forced     ConvForced      .... 1
 Energy Change          TolE            ....  1.000e-08 Eh
 1-El. energy change                    ....  1.000e-05 Eh
 Orbital Gradient       TolG            ....  1.000e-05
 Orbital Rotation angle TolX            ....  1.000e-05
 DIIS Error             TolErr          ....  5.000e-07

------------------------------
INITIAL GUESS: MODEL POTENTIAL
------------------------------
Loading Hartree-Fock densities                     ... done
Calculating cut-offs                               ... done
Initializing the effective Hamiltonian             ... done
Setting up the integral package (SHARK)            ... done
Starting the Coulomb interaction                   ... done (   0.0 sec)
Making the grid                                    ... done (   0.0 sec)
Mapping shells                                     ... done
Starting the XC term evaluation                    ... done (   0.0 sec)
Transforming the Hamiltonian                       ... done (   0.0 sec)
Diagonalizing the Hamiltonian                      ... done (   0.0 sec)
Back transforming the eigenvectors                 ... done (   0.0 sec)
Now organizing SCF variables                       ... done
                      ------------------
                      INITIAL GUESS DONE (   0.0 sec)
                      ------------------
             **** ENERGY FILE WAS UPDATED (ammonia.en.tmp) ****
Finished Guess after   0.1 sec
Maximum memory used throughout the entire GUESS-calculation: 3.6 MB

-------------------------------------------------------------------------------------------
                                      ORCA LEAN-SCF
                              memory conserving SCF solver
-------------------------------------------------------------------------------------------

----------------------------------------D-I-I-S--------------------------------------------
Iteration    Energy (Eh)           Delta-E    RMSDP     MaxDP     DIISErr   Damp  Time(sec)
-------------------------------------------------------------------------------------------
               ***  Starting incremental Fock matrix formation  ***
    1    -56.0368356755707353     0.00e+00  8.15e-03  8.07e-02  3.26e-01  0.700   0.0
    2    -56.0881907915765723    -5.14e-02  5.85e-03  5.75e-02  2.00e-01  0.700   0.0
                               ***Turning on AO-DIIS***
    3    -56.1162222946072760    -2.80e-02  2.56e-03  2.46e-02  1.11e-01  0.700   0.0
    4    -56.1330377950900257    -1.68e-02  1.53e-03  1.51e-02  7.32e-02  0.700   0.0
    5    -56.1440521344016119    -1.10e-02  3.45e-03  3.48e-02  5.10e-02  0.000   0.0
                              *** Initializing SOSCF ***
---------------------------------------S-O-S-C-F--------------------------------------
Iteration    Energy (Eh)           Delta-E    RMSDP     MaxDP     MaxGrad    Time(sec)
--------------------------------------------------------------------------------------
    6    -56.1684106062309283    -2.44e-02  2.15e-04  1.46e-03  2.01e-03     0.0
               *** Restarting incremental Fock matrix formation ***
    7    -56.1684270353065287    -1.64e-05  1.30e-04  7.99e-04  7.78e-04     0.0
    8    -56.1684307354238328    -3.70e-06  9.70e-05  7.68e-04  3.97e-04     0.0
    9    -56.1684314058980831    -6.70e-07  1.30e-05  1.16e-04  9.90e-05     0.0
   10    -56.1684314425096503    -3.66e-08  2.25e-06  1.56e-05  1.70e-05     0.0
   11    -56.1684314436462202    -1.14e-09  4.49e-07  3.56e-06  3.09e-06     0.0
                 **** Energy Check signals convergence ****

               *****************************************************
               *                     SUCCESS                       *
               *           SCF CONVERGED AFTER  11 CYCLES          *
               *****************************************************

             **** ENERGY FILE WAS UPDATED (ammonia.en.tmp) ****

----------------
TOTAL SCF ENERGY
----------------

Total Energy       :        -56.16843144368608 Eh           -1528.42072 eV

Components:
Nuclear Repulsion  :         11.71877760944864 Eh             318.88415 eV
Electronic Energy  :        -67.88720905313473 Eh           -1847.30487 eV
One Electron Energy:        -99.28934001097419 Eh           -2701.80030 eV
Two Electron Energy:         31.40213095783946 Eh             854.49543 eV

Virial components:
Potential Energy   :       -112.10139864346769 Eh           -3050.43414 eV
Kinetic Energy     :         55.93296719978161 Eh            1522.01342 eV
Virial Ratio       :          2.00420975778137

---------------
SCF CONVERGENCE
---------------

  Last Energy change         ...    1.1366e-09  Tolerance :   1.0000e-08
  Last MAX-Density change    ...    3.5614e-06  Tolerance :   1.0000e-07
  Last RMS-Density change    ...    4.4870e-07  Tolerance :   5.0000e-09
  Last DIIS Error            ...    2.0083e-03  Tolerance :   5.0000e-07
  Last Orbital Gradient      ...    3.0947e-06  Tolerance :   1.0000e-05
  Last Orbital Rotation      ...    2.8452e-06  Tolerance :   1.0000e-05


----------------
ORBITAL ENERGIES
----------------

  NO   OCC          E(Eh)            E(eV) 
   0   2.0000     -15.524192      -422.4347 
   1   2.0000      -1.099759       -29.9260 
   2   2.0000      -0.658361       -17.9149 
   3   2.0000      -0.582525       -15.8513 
   4   2.0000      -0.377701       -10.2778 
   5   0.0000       0.217916         5.9298 
   6   0.0000       0.316093         8.6013 
   7   0.0000       0.322356         8.7717 
   8   0.0000       0.844588        22.9824 
   9   0.0000       0.973230        26.4829 
  10   0.0000       1.044001        28.4087 
  11   0.0000       1.081203        29.4210 
  12   0.0000       1.146443        31.1963 
  13   0.0000       1.177636        32.0451 
  14   0.0000       1.388669        37.7876 
  15   0.0000       1.722889        46.8822 
*Only the first 10 virtual orbitals were printed.

                    ********************************
                    * MULLIKEN POPULATION ANALYSIS *
                    ********************************

-----------------------
MULLIKEN ATOMIC CHARGES
-----------------------
   0 N :   -0.885688
   1 H :    0.314404
   2 H :    0.311249
   3 H :    0.260035
Sum of atomic charges:   -0.0000000

--------------------------------
MULLIKEN REDUCED ORBITAL CHARGES
--------------------------------
  0 N s       :     3.523760  s :     3.523760
      pz      :     1.269252  p :     4.345225
      px      :     1.431773
      py      :     1.644200
      dz2     :     0.003272  d :     0.016703
      dxz     :     0.004848
      dyz     :     0.004898
      dx2y2   :     0.001577
      dxy     :     0.002108

  1 H s       :     0.657188  s :     0.657188
      pz      :     0.010267  p :     0.028409
      px      :     0.010967
      py      :     0.007175

  2 H s       :     0.660007  s :     0.660007
      pz      :     0.004791  p :     0.028743
      px      :     0.013847
      py      :     0.010105

  3 H s       :     0.713788  s :     0.713788
      pz      :     0.011525  p :     0.026177
      px      :     0.005345
      py      :     0.009307



                     *******************************
                     * LOEWDIN POPULATION ANALYSIS *
                     *******************************

----------------------
LOEWDIN ATOMIC CHARGES
----------------------
   0 N :   -0.439143
   1 H :    0.158257
   2 H :    0.153991
   3 H :    0.126895

-------------------------------
LOEWDIN REDUCED ORBITAL CHARGES
-------------------------------
  0 N s       :     3.140495  s :     3.140495
      pz      :     1.260093  p :     4.270938
      px      :     1.399597
      py      :     1.611248
      dz2     :     0.005954  d :     0.027709
      dxz     :     0.008239
      dyz     :     0.008257
      dx2y2   :     0.002516
      dxy     :     0.002743

  1 H s       :     0.757348  s :     0.757348
      pz      :     0.031157  p :     0.084394
      px      :     0.032340
      py      :     0.020897

  2 H s       :     0.760020  s :     0.760020
      pz      :     0.013759  p :     0.085989
      px      :     0.041872
      py      :     0.030358

  3 H s       :     0.793386  s :     0.793386
      pz      :     0.034537  p :     0.079720
      px      :     0.016484
      py      :     0.028699



                      *****************************
                      * MAYER POPULATION ANALYSIS *
                      *****************************

  NA   - Mulliken gross atomic population
  ZA   - Total nuclear charge
  QA   - Mulliken gross atomic charge
  VA   - Mayer's total valence
  BVA  - Mayer's bonded valence
  FA   - Mayer's free valence

  ATOM       NA         ZA         QA         VA         BVA        FA
  0 N      7.8857     7.0000    -0.8857     2.6990     2.6990    -0.0000
  1 H      0.6856     1.0000     0.3144     0.8952     0.8952    -0.0000
  2 H      0.6888     1.0000     0.3112     0.8964     0.8964    -0.0000
  3 H      0.7400     1.0000     0.2600     0.9116     0.9116    -0.0000

  Mayer bond orders larger than 0.100000
B(  0-N ,  1-H ) :   0.8875 B(  0-N ,  2-H ) :   0.8901 B(  0-N ,  3-H ) :   0.9215 


-------
TIMINGS
-------

Total SCF time: 0 days 0 hours 0 min 0 sec 

Total time                  ....       0.086 sec
Sum of individual times     ....       0.075 sec  ( 87.4%)

SCF preparation             ....       0.014 sec  ( 16.8%)
Fock matrix formation       ....       0.051 sec  ( 59.8%)
  Startup                   ....       0.000 sec  (  0.2% of F)
  Coulomb+Exchange Fock     ....       0.053 sec  (103.2% of F)
Diagonalization             ....       0.000 sec  (  0.0%)
Density matrix formation    ....       0.001 sec  (  0.7%)
Total Energy calculation    ....       0.000 sec  (  0.2%)
Population analysis         ....       0.002 sec  (  2.4%)
Orbital Transformation      ....       0.000 sec  (  0.2%)
Orbital Orthonormalization  ....       0.000 sec  (  0.0%)
DIIS solution               ....       0.005 sec  (  5.8%)
SOSCF solution              ....       0.001 sec  (  1.6%)
Finished LeanSCF after   0.1 sec

Maximum memory used throughout the entire LEANSCF-calculation: 7.1 MB

------------------------------------------------------------------------------
                                ORCA  MP2 
------------------------------------------------------------------------------

Freezing NCore=2 chemical core electrons
MP2 will be done in the AO integral direct mode
The Q1-step will be done using symmetric double matrices
Dimension of the basis                    ...   29
Memory devoted for MP2                    ... 4096 MB   
Memory needed for all in one shot         ...    1 MB
Number of MOs that can be treated together... 42557      
MP2 density construction                  ... relaxed
The MP2 gradient is requested => amplitudes will be stored on disk
Total number of MOs              ...    4
Number of MOs treated per batch  ...    4 
Number of batches necessary      ...    1 
OPERATORS   0/  0 PASS   0
-----------------------------------------------
 MP2 CORRELATION ENERGY   :     -0.187499742 Eh
-----------------------------------------------


---------------------
MP2 DENSITY FORMATION
---------------------

Completing the external part of the density      ... done
Storing the unrelaxed density                    ... done

Calculating G(D)                                 ... done
Completing the Lagrangian                        ... done
Solving the Z-vector equations                   ... 
-------------------
SHARK CP-SCF DRIVER
-------------------

Dimension of the orbital basis          ...     29
Dimension of the CPSCF-problem          ...    120
Number of operators                     ...      1
Max. number of iterations               ...    128
Convergence Tolerance                   ... 1.0e-04
Number of perturbations                 ...      1
Perturbation type                       ... REAL

----------------------------
POPLE LINEAR EQUATION SOLVER
----------------------------

  ITERATION   0:   ||err||_max =   1.8557e-02 (   0.0 sec)
  ITERATION   1:   ||err||_max =   3.2417e-03 (   0.0 sec)
  ITERATION   2:   ||err||_max =   4.8393e-04 (   0.0 sec)
  ITERATION   3:   ||err||_max =   4.4541e-05 (   0.0 sec)
                                                 ... done
Finalizing the relaxed density                   ... done
Transforming P to the AO basis                   ... done
Storing the relaxed density                      ... done

------------------------------------
ENERGY WEIGHTED DENSITY FINALIZATION
------------------------------------

Gathering the parts of the W-matrix              ...                                                      done
Forming the Z-density                            ... done
Transforming Z to the AO basis                   ... done
Calculating G(Z)                                 ... done
Finalizing the W-matrix                          ...                                                      done
Transforming W to the AO basis and storing       ... done

                *********************************************
                * UNRELAXED MP2 DENSITY POPULATION ANALYSIS *
                *********************************************

------------------------------------------------------------------------------
                           ORCA POPULATION ANALYSIS
------------------------------------------------------------------------------
Input electron density              ... ammonia.pmp2ur
BaseName (.gbw .S,...)              ... ammonia

                    ********************************
                    * MULLIKEN POPULATION ANALYSIS *
                    ********************************

-----------------------
MULLIKEN ATOMIC CHARGES
-----------------------
   0 N :   -0.882385
   1 H :    0.313206
   2 H :    0.310098
   3 H :    0.259080
Sum of atomic charges:   -0.0000000

--------------------------------
MULLIKEN REDUCED ORBITAL CHARGES
--------------------------------
  0 N s       :     3.520531  s :     3.520531
      pz      :     1.263723  p :     4.323567
      px      :     1.424561
      py      :     1.635283
      dz2     :     0.007363  d :     0.038286
      dxz     :     0.009045
      dyz     :     0.009080
      dx2y2   :     0.006120
      dxy     :     0.006679
  1 H s       :     0.656789  s :     0.656789
      pz      :     0.010674  p :     0.030005
      px      :     0.011441
      py      :     0.007890
  2 H s       :     0.659541  s :     0.659541
      pz      :     0.005480  p :     0.030361
      px      :     0.014189
      py      :     0.010692
  3 H s       :     0.712789  s :     0.712789
      pz      :     0.011988  p :     0.028131
      px      :     0.006135
      py      :     0.010007


                     *******************************
                     * LOEWDIN POPULATION ANALYSIS *
                     *******************************

----------------------
LOEWDIN ATOMIC CHARGES
----------------------
   0 N :   -0.437800
   1 H :    0.157825
   2 H :    0.153581
   3 H :    0.126394

-------------------------------
LOEWDIN REDUCED ORBITAL CHARGES
-------------------------------
  0 N s       :     3.139306  s :     3.139306
      pz      :     1.253814  p :     4.248179
      px      :     1.392066
      py      :     1.602300
      dz2     :     0.010159  d :     0.050314
      dxz     :     0.012751
      dyz     :     0.012658
      dx2y2   :     0.007059
      dxy     :     0.007686
  1 H s       :     0.755013  s :     0.755013
      pz      :     0.032199  p :     0.087162
      px      :     0.033318
      py      :     0.021645
  2 H s       :     0.757610  s :     0.757610
      pz      :     0.014584  p :     0.088809
      px      :     0.042996
      py      :     0.031229
  3 H s       :     0.790480  s :     0.790480
      pz      :     0.035969  p :     0.083126
      px      :     0.017410
      py      :     0.029748


                      *****************************
                      * MAYER POPULATION ANALYSIS *
                      *****************************

  NA   - Mulliken gross atomic population
  ZA   - Total nuclear charge
  QA   - Mulliken gross atomic charge
  VA   - Mayer's total valence
  BVA  - Mayer's bonded valence
  FA   - Mayer's free valence

  ATOM       NA         ZA         QA         VA         BVA        FA
  0 N      7.8824     7.0000    -0.8824     2.9055     2.5971     0.3084
  1 H      0.6868     1.0000     0.3132     0.9008     0.8610     0.0398
  2 H      0.6899     1.0000     0.3101     0.9020     0.8623     0.0397
  3 H      0.7409     1.0000     0.2591     0.9185     0.8745     0.0439

  Mayer bond orders larger than 0.100000
B(  0-N ,  1-H ) :   0.8547 B(  0-N ,  2-H ) :   0.8574 B(  0-N ,  3-H ) :   0.8850 



                *******************************************
                * RELAXED MP2 DENSITY POPULATION ANALYSIS *
                *******************************************

------------------------------------------------------------------------------
                           ORCA POPULATION ANALYSIS
------------------------------------------------------------------------------
Input electron density              ... ammonia.pmp2re
BaseName (.gbw .S,...)              ... ammonia

                    ********************************
                    * MULLIKEN POPULATION ANALYSIS *
                    ********************************

-----------------------
MULLIKEN ATOMIC CHARGES
-----------------------
   0 N :   -0.831922
   1 H :    0.293494
   2 H :    0.290664
   3 H :    0.247764
Sum of atomic charges:   -0.0000000

--------------------------------
MULLIKEN REDUCED ORBITAL CHARGES
--------------------------------
  0 N s       :     3.494543  s :     3.494543
      pz      :     1.256189  p :     4.300625
      px      :     1.413273
      py      :     1.631163
      dz2     :     0.006907  d :     0.036754
      dxz     :     0.008587
      dyz     :     0.008532
      dx2y2   :     0.006014
      dxy     :     0.006713
  1 H s       :     0.677970  s :     0.677970
      pz      :     0.010037  p :     0.028536
      px      :     0.010533
      py      :     0.007966
  2 H s       :     0.680447  s :     0.680447
      pz      :     0.005495  p :     0.028889
      px      :     0.012945
      py      :     0.010449
  3 H s       :     0.725191  s :     0.725191
      pz      :     0.010910  p :     0.027045
      px      :     0.006349
      py      :     0.009786


                     *******************************
                     * LOEWDIN POPULATION ANALYSIS *
                     *******************************

----------------------
LOEWDIN ATOMIC CHARGES
----------------------
   0 N :   -0.428765
   1 H :    0.153427
   2 H :    0.149356
   3 H :    0.125982

-------------------------------
LOEWDIN REDUCED ORBITAL CHARGES
-------------------------------
  0 N s       :     3.131470  s :     3.131470
      pz      :     1.255102  p :     4.248395
      px      :     1.390891
      py      :     1.602402
      dz2     :     0.009762  d :     0.048901
      dxz     :     0.012332
      dyz     :     0.012152
      dx2y2   :     0.006954
      dxy     :     0.007701
  1 H s       :     0.761407  s :     0.761407
      pz      :     0.031270  p :     0.085167
      px      :     0.032244
      py      :     0.021652
  2 H s       :     0.763813  s :     0.763813
      pz      :     0.014450  p :     0.086831
      px      :     0.041532
      py      :     0.030849
  3 H s       :     0.792093  s :     0.792093
      pz      :     0.034935  p :     0.081925
      px      :     0.017458
      py      :     0.029532


                      *****************************
                      * MAYER POPULATION ANALYSIS *
                      *****************************

  NA   - Mulliken gross atomic population
  ZA   - Total nuclear charge
  QA   - Mulliken gross atomic charge
  VA   - Mayer's total valence
  BVA  - Mayer's bonded valence
  FA   - Mayer's free valence

  ATOM       NA         ZA         QA         VA         BVA        FA
  0 N      7.8319     7.0000    -0.8319     2.9389     2.6326     0.3063
  1 H      0.7065     1.0000     0.2935     0.9141     0.8741     0.0400
  2 H      0.7093     1.0000     0.2907     0.9150     0.8751     0.0400
  3 H      0.7522     1.0000     0.2478     0.9254     0.8813     0.0441

  Mayer bond orders larger than 0.100000
B(  0-N ,  1-H ) :   0.8687 B(  0-N ,  2-H ) :   0.8710 B(  0-N ,  3-H ) :   0.8929 



----------------------------------
MP2 DERIVATIVE INTEGRAL GENERATION
----------------------------------

Input SCF Electron Density              ... ammonia.scfp
Input Correlated Electron Density       ... ammonia.pmp2re
Input Energy Weighted Density           ... ammonia.wmp2.tmp
Input Wavefunction Amplitudes           ... ammonia.mp2tsaa.tmp

Nuclear repulsion gradient              ... done (  0.0 sec)
HCore & Overlap gradient  (SHARK)       ... done (  0.0 sec)
Analytic two-electron gradient terms    ... 
  Batch handling in the gradient evaluation:
  General contraction                   ... not used
  Memory available                      ... 4094.5 MB
  Memory per occupied orbital in Q2     ...    0.0 MB
  Memory per occupied orbital in Q3     ...    0.0 MB
  Total memory requirement per |i>      ...    0.0 MB
  Number of orbitals treated per batch  ...      4
  Number of batches to be done          ...      1
done (  0.1 sec)

---------------------------------------
MP2 TOTAL ENERGY:      -56.355931186 Eh
---------------------------------------

The final MP2 gradient
  0:   0.01616190   0.03162775  -0.04716964
  1:  -0.03610735  -0.02348206  -0.00729988
  2:   0.02260403   0.00229648   0.03453604
  3:  -0.00265858  -0.01044217   0.01993349

-----------------------------------
NORM OF THE MP2 GRADIENT:  0.087277
-----------------------------------

Maximum memory used throughout the entire MP2-calculation: 13.2 MB

-------------------------   --------------------
FINAL SINGLE POINT ENERGY       -56.355931185539
-------------------------   --------------------

------------------------------------------------------------------------------
                         ORCA GEOMETRY RELAXATION STEP
------------------------------------------------------------------------------

Reading the OPT-File                    .... done
Getting information on internals        .... done
Copying old internal coords+grads       .... done
Making the new internal coordinates     .... (2022 redundants) done
Validating the new internal coordinates .... (2022 redundants) done
Calculating the B-matrix                .... done
Calculating the G,G- and P matrices     .... done
Transforming gradient to internals      .... done
Projecting the internal gradient        .... done
Number of atoms                         ....   4
Number of internal coordinates          ....   7
Current Energy                          ....   -56.355931186 Eh
Current gradient norm                   ....     0.087277364 Eh/bohr
Maximum allowed component of the step   ....  0.300
Current trust radius                    ....  0.300
Evaluating the initial hessian          ....  (Almloef) done
Projecting the Hessian                  .... done
Diagonalizing the Hessian               .... done
Dimension of the hessian                ....   7
Lowest eigenvalues of the Hessian:
  0.024480565  0.296625175  0.297379023  0.402054979  0.402055583
Hessian has   0 negative eigenvalues
Taking P-RFO step
Searching for lambda that maximizes along the lowest mode
TS mode is mode number   0 with eigenvalue   0.02448056 and components:
   1.    0.00000000
   2.    0.00000000
   3.    0.00000000
   4.    0.00298781
   5.    0.00297538
   6.    0.00297550
   7.    0.99998668

Lambda that maximizes along the TS mode:       0.02448162
Searching for lambda that minimizes along all other modes
In cycle   1: lambdaN =  -0.01273802   step =   0.01273802
In cycle   2: lambdaN =  -0.01275594   step =   0.00001792
In cycle   3: lambdaN =  -0.01275594   step =   0.00000000
Lambda that minimizes along all other modes:  -0.01275594
Calculated stepsize too large (   0.6113 >    0.3000). Scaled with    0.4907.
The final length of the internal step   ....       0.3000
Converting the step to Cartesian space:
 Initial RMS(Int)=    0.1133893419
Transforming coordinates:
 Iter   0:  RMS(Cart)=    0.0320919575 RMS(Int)=    0.0604654800
done
Storing new coordinates                 .... done

                                .--------------------.
          ----------------------|Geometry convergence|-------------------------
          Item                value                   Tolerance       Converged
          ---------------------------------------------------------------------
          RMS gradient        0.0255567022            0.0001000000      NO
          MAX gradient        0.0379306929            0.0003000000      NO
          RMS step            0.1133893419            0.0020000000      NO
          MAX step            0.1472220495            0.0040000000      NO
          -------------------------------------------------------------------------
          ........................................................
          Max(Bonds)      0.0212      Max(Angles)    8.44
          Max(Dihed)        0.00      Max(Improp)    8.44
          ---------------------------------------------------------------------

The optimization has not yet converged - more geometry cycles are needed


    ---------------------------------------------------------------------------
                         Redundant Internal Coordinates
                            (Angstroem and degrees)

        Definition                    Value    dE/dq     Step     New-Value  comp.(TS mode)
    ----------------------------------------------------------------------------
     1. B(H   1,N   0)                1.0300  0.033866 -0.0212    1.0088   
     2. B(H   2,N   0)                1.0235  0.027276 -0.0167    1.0068   
     3. B(H   3,N   0)                1.0300  0.022422 -0.0140    1.0160   
     4. A(H   1,N   0,H   3)          109.47 -0.015782    8.44    117.91   
     5. A(H   2,N   0,H   3)          106.84 -0.022149    8.44    115.27   
     6. A(H   1,N   0,H   2)          143.69  0.037931    8.44    152.13   
     7. I(H   1,H   3,H   2,N   0)     -0.30  0.000161    8.44      8.14          1.00
    ----------------------------------------------------------------------------

Geometry step timings:
Preparation and reading OPT file:      0.000 s ( 3.472 %)
Internal coordinates            :      0.000 s ( 3.819 %)
B/P matrices and projection     :      0.000 s (17.361 %)
Hessian update/contruction      :      0.000 s (12.500 %)
Making the step                 :      0.000 s (28.819 %)
Converting the step to Cartesian:      0.000 s ( 9.028 %)
Storing new data                :      0.000 s ( 3.819 %)
Checking convergence            :      0.000 s ( 6.250 %)
Final printing                  :      0.000 s (14.931 %)
Total time                      :      0.000 s

Time for energy+gradient        :      0.492 s
Time for complete geometry iter :      0.514 s

         *************************************************************
         *                GEOMETRY OPTIMIZATION CYCLE   2            *
         *************************************************************
---------------------------------
CARTESIAN COORDINATES (ANGSTROEM)
---------------------------------
  N     -1.591371    0.739526   -0.014529
  H     -2.297788    0.589461   -0.718895
  H     -0.792926    1.305760    0.220967
  H     -1.858712    0.250252    0.834777

----------------------------
CARTESIAN COORDINATES (A.U.)
----------------------------
  NO LB      ZA    FRAG     MASS         X           Y           Z
   0 N     7.0000    0    14.007   -3.007255    1.397501   -0.027457
   1 H     1.0000    0     1.008   -4.342190    1.113921   -1.358514
   2 H     1.0000    0     1.008   -1.498413    2.467529    0.417568
   3 H     1.0000    0     1.008   -3.512456    0.472908    1.577499

--------------------------------
INTERNAL COORDINATES (ANGSTROEM)
--------------------------------
 N      0   0   0     0.000000000000     0.00000000     0.00000000
 H      1   0   0     1.008798968314     0.00000000     0.00000000
 H      1   2   0     1.006773927633   143.35413286     0.00000000
 H      1   2   3     1.015962957573   109.13422618   165.93876027

---------------------------
INTERNAL COORDINATES (A.U.)
---------------------------
 N      0   0   0     0.000000000000     0.00000000     0.00000000
 H      1   0   0     1.906353774296     0.00000000     0.00000000
 H      1   2   0     1.902527001998   143.35413286     0.00000000
 H      1   2   3     1.919891752021   109.13422618   165.93876027

------------------------------------------------------------------------------
                   ___                                                        
                  /   \      - P O W E R E D   B Y -                         
                 /     \                                                     
                 |  |  |   _    _      __       _____    __    __             
                 |  |  |  | |  | |    /  \     |  _  \  |  |  /  |          
                  \  \/   | |  | |   /    \    | | | |  |  | /  /          
                 / \  \   | |__| |  /  /\  \   | |_| |  |  |/  /          
                |  |  |   |  __  | /  /__\  \  |    /   |      \           
                |  |  |   | |  | | |   __   |  |    \   |  |\   \          
                \     /   | |  | | |  |  |  |  | |\  \  |  | \   \       
                 \___/    |_|  |_| |__|  |__|  |_| \__\ |__|  \__/        
                                                                              
                      - O R C A' S   B I G   F R I E N D -                    
                                      &                                       
                       - I N T E G R A L  F E E D E R -                       
                                                                              
 v1 FN, 2020, v2 2021, v3 2022-2024                                           
------------------------------------------------------------------------------


----------------------
SHARK INTEGRAL PACKAGE
----------------------

Number of atoms                             ...      4
Number of basis functions                   ...     29
Number of shells                            ...     15
Maximum angular momentum                    ...      2
Integral batch strategy                     ... SHARK/LIBINT Hybrid
RI-J (if used) integral strategy            ... SPLIT-RIJ (Revised 2003 algorithm where possible)
Printlevel                                  ...      1
Contraction scheme used                     ... SEGMENTED contraction
Prescreening option                         ... SCHWARTZ
   Thresh                                   ... 2.500e-11
   Tcut                                     ... 2.500e-12
   Tpresel                                  ... 2.500e-12 
Coulomb Range Separation                    ... NOT USED
Exchange Range Separation                   ... NOT USED
Multipole approximations                    ... NOT USED
Finite Nucleus Model                        ... NOT USED
CABS basis                                  ... NOT available
Auxiliary Coulomb fitting basis             ... NOT available
Auxiliary J/K fitting basis                 ... NOT available
Auxiliary Correlation fitting basis         ... NOT available
Auxiliary 'external' fitting basis          ... NOT available

Checking pre-screening integrals            ... done (  0.0 sec) Dimension = 15
   => SHARK Basis and OBASIS are compatible. Storing Pre-screening
Shell pair information
Shell pair cut-off parameter TPreSel        ...   2.5e-12
Total number of shell pairs                 ...       120
Shell pairs after pre-screening             ...       120
Total number of primitive shell pairs       ...       495
Primitive shell pairs kept                  ...       478
          la=0 lb=0:     45 shell pairs
          la=1 lb=0:     45 shell pairs
          la=1 lb=1:     15 shell pairs
          la=2 lb=0:      9 shell pairs
          la=2 lb=1:      5 shell pairs
          la=2 lb=2:      1 shell pairs

Checking whether 4 symmetric matrices of dimension 29 fit in memory
:Max Core in MB      =   4096.00
 MB in use           =      1.33
 MB left             =   4094.67
 MB needed           =      0.01
 Data fit in memory  = YES
Calculating Nuclear repulsion               ... done (  0.0 sec) ENN=     11.921117338485 Eh

Diagonalization of the overlap matrix:
Smallest eigenvalue                        ... 3.613e-02
Time for diagonalization                   ...    0.000 sec
Threshold for overlap eigenvalues          ... 1.000e-07
Number of eigenvalues below threshold      ... 0
Time for construction of square roots      ...    0.000 sec
Total time needed                          ...    0.000 sec

-------------------
DFT GRID GENERATION
-------------------

General Integration Accuracy     IntAcc      ... 4.388
Radial Grid Type                 RadialGrid  ... OptM3 with GC (2021)
Angular Grid (max. ang.)         AngularGrid ... 4 (Lebedev-302)
Angular grid pruning method      GridPruning ... 4 (adaptive)
Weight generation scheme         WeightScheme... mBecke (2022)
Basis function cutoff            BFCut       ... 1.0000e-11
Integration weight cutoff        WCut        ... 1.0000e-14
Partially contracted basis set               ... off
Rotationally invariant grid construction     ... off
Angular grids for H and He will be reduced by one unit

Total number of grid points                  ...    16015
Total number of batches                      ...      253
Average number of points per batch           ...       63
Average number of grid points per atom       ...     4004
Grids setup in   0.0 sec
Initializing property integral containers    ... done (  0.0 sec)

SHARK setup successfully completed in   0.0 seconds

Maximum memory used throughout the entire STARTUP-calculation: 7.7 MB
Occupation numbers will be reassigned to an Aufbau configuration
             **** ENERGY FILE WAS UPDATED (ammonia.en.tmp) ****
Finished Guess after   0.0 sec
Maximum memory used throughout the entire GUESS-calculation: 3.6 MB
----------------------------------------D-I-I-S--------------------------------------------
Iteration    Energy (Eh)           Delta-E    RMSDP     MaxDP     DIISErr   Damp  Time(sec)
-------------------------------------------------------------------------------------------
               ***  Starting incremental Fock matrix formation  ***
    1    -56.1702258286048703     0.00e+00  6.22e-04  3.83e-03  1.43e-02  0.700   0.0
    2    -56.1705419232214922    -3.16e-04  5.65e-04  3.75e-03  1.17e-02  0.700   0.0
                               ***Turning on AO-DIIS***
    3    -56.1707986964266723    -2.57e-04  5.62e-04  4.00e-03  9.39e-03  0.700   0.0
    4    -56.1710022547216994    -2.04e-04  1.66e-03  1.22e-02  7.12e-03  0.000   0.0
                              *** Initializing SOSCF ***
---------------------------------------S-O-S-C-F--------------------------------------
Iteration    Energy (Eh)           Delta-E    RMSDP     MaxDP     MaxGrad    Time(sec)
--------------------------------------------------------------------------------------
    5    -56.1716259356022505    -6.24e-04  3.51e-04  2.79e-03  1.15e-03     0.0
               *** Restarting incremental Fock matrix formation ***
    6    -56.1716410607898240    -1.51e-05  2.64e-04  2.17e-03  9.34e-04     0.0
    7    -56.1716460098665777    -4.95e-06  2.71e-04  2.18e-03  4.66e-04     0.0
    8    -56.1716478136798685    -1.80e-06  1.25e-05  1.17e-04  6.62e-05     0.0
    9    -56.1716478297556705    -1.61e-08  4.28e-06  2.94e-05  3.26e-05     0.0
   10    -56.1716478332970013    -3.54e-09  1.00e-06  7.34e-06  3.38e-06     0.0
                 **** Energy Check signals convergence ****

               *****************************************************
               *                     SUCCESS                       *
               *           SCF CONVERGED AFTER  10 CYCLES          *
               *****************************************************

             **** ENERGY FILE WAS UPDATED (ammonia.en.tmp) ****

----------------
TOTAL SCF ENERGY
----------------

Total Energy       :        -56.17164783339666 Eh           -1528.50825 eV

Components:
Nuclear Repulsion  :         11.92111733848489 Eh             324.39009 eV
Electronic Energy  :        -68.09276517188155 Eh           -1852.89834 eV
One Electron Energy:        -99.65274470875478 Eh           -2711.68904 eV
Two Electron Energy:         31.55997953687323 Eh             858.79070 eV

Virial components:
Potential Energy   :       -112.19500690156826 Eh           -3052.98135 eV
Kinetic Energy     :         56.02335906817160 Eh            1524.47310 eV
Virial Ratio       :          2.00264690956936

---------------
SCF CONVERGENCE
---------------

  Last Energy change         ...    3.5413e-09  Tolerance :   1.0000e-08
  Last MAX-Density change    ...    7.3446e-06  Tolerance :   1.0000e-07
  Last RMS-Density change    ...    1.0050e-06  Tolerance :   5.0000e-09
  Last DIIS Error            ...    1.1513e-03  Tolerance :   5.0000e-07
  Last Orbital Gradient      ...    3.3751e-06  Tolerance :   1.0000e-05
  Last Orbital Rotation      ...    5.3672e-06  Tolerance :   1.0000e-05


Total SCF time: 0 days 0 hours 0 min 0 sec 
Finished LeanSCF after   0.1 sec

Maximum memory used throughout the entire LEANSCF-calculation: 7.2 MB

------------------------------------------------------------------------------
                                ORCA  MP2 
------------------------------------------------------------------------------

Freezing NCore=2 chemical core electrons
MP2 will be done in the AO integral direct mode
The Q1-step will be done using symmetric double matrices
Dimension of the basis                    ...   29
Memory devoted for MP2                    ... 4096 MB   
Memory needed for all in one shot         ...    1 MB
Number of MOs that can be treated together... 42557      
MP2 density construction                  ... relaxed
The MP2 gradient is requested => amplitudes will be stored on disk
Total number of MOs              ...    4
Number of MOs treated per batch  ...    4 
Number of batches necessary      ...    1 
OPERATORS   0/  0 PASS   0
-----------------------------------------------
 MP2 CORRELATION ENERGY   :     -0.186617705 Eh
-----------------------------------------------


---------------------
MP2 DENSITY FORMATION
---------------------

Completing the external part of the density      ... done
Storing the unrelaxed density                    ... done

Calculating G(D)                                 ... done
Completing the Lagrangian                        ... done
Solving the Z-vector equations                   ... 
-------------------
SHARK CP-SCF DRIVER
-------------------

Dimension of the orbital basis          ...     29
Dimension of the CPSCF-problem          ...    120
Number of operators                     ...      1
Max. number of iterations               ...    128
Convergence Tolerance                   ... 1.0e-04
Number of perturbations                 ...      1
Perturbation type                       ... REAL

----------------------------
POPLE LINEAR EQUATION SOLVER
----------------------------

  ITERATION   0:   ||err||_max =   1.7394e-02 (   0.0 sec)
  ITERATION   1:   ||err||_max =   2.9805e-03 (   0.0 sec)
  ITERATION   2:   ||err||_max =   4.5884e-04 (   0.0 sec)
  ITERATION   3:   ||err||_max =   5.1000e-05 (   0.0 sec)
                                                 ... done
Finalizing the relaxed density                   ... done
Transforming P to the AO basis                   ... done
Storing the relaxed density                      ... done

------------------------------------
ENERGY WEIGHTED DENSITY FINALIZATION
------------------------------------

Gathering the parts of the W-matrix              ...                                                      done
Forming the Z-density                            ... done
Transforming Z to the AO basis                   ... done
Calculating G(Z)                                 ... done
Finalizing the W-matrix                          ...                                                      done
Transforming W to the AO basis and storing       ... done

----------------------------------
MP2 DERIVATIVE INTEGRAL GENERATION
----------------------------------

Input SCF Electron Density              ... ammonia.scfp
Input Correlated Electron Density       ... ammonia.pmp2re
Input Energy Weighted Density           ... ammonia.wmp2.tmp
Input Wavefunction Amplitudes           ... ammonia.mp2tsaa.tmp

Nuclear repulsion gradient              ... done (  0.0 sec)
HCore & Overlap gradient  (SHARK)       ... done (  0.0 sec)
Analytic two-electron gradient terms    ... 
  Batch handling in the gradient evaluation:
  General contraction                   ... not used
  Memory available                      ... 4094.4 MB
  Memory per occupied orbital in Q2     ...    0.0 MB
  Memory per occupied orbital in Q3     ...    0.0 MB
  Total memory requirement per |i>      ...    0.0 MB
  Number of orbitals treated per batch  ...      4
  Number of batches to be done          ...      1
done (  0.0 sec)

---------------------------------------
MP2 TOTAL ENERGY:      -56.358265539 Eh
---------------------------------------

The final MP2 gradient
  0:   0.00967759   0.03597273  -0.04647551
  1:  -0.02191512  -0.02374022   0.00553154
  2:   0.01245096  -0.00900547   0.03100160
  3:  -0.00021343  -0.00322704   0.00994237

-----------------------------------
NORM OF THE MP2 GRADIENT:  0.076998
-----------------------------------

Maximum memory used throughout the entire MP2-calculation: 13.2 MB

-------------------------   --------------------
FINAL SINGLE POINT ENERGY       -56.358265538818
-------------------------   --------------------

------------------------------------------------------------------------------
                         ORCA GEOMETRY RELAXATION STEP
------------------------------------------------------------------------------

Reading the OPT-File                    .... done
Getting information on internals        .... done
Copying old internal coords+grads       .... done
Making the new internal coordinates     .... (2022 redundants) done
Validating the new internal coordinates .... (2022 redundants) done
Calculating the B-matrix                .... done
Calculating the G,G- and P matrices     .... done
Transforming gradient to internals      .... done
Projecting the internal gradient        .... done
Number of atoms                         ....   4
Number of internal coordinates          ....   7
Current Energy                          ....   -56.358265539 Eh
Current gradient norm                   ....     0.076997847 Eh/bohr
Maximum allowed component of the step   ....  0.300
Current trust radius                    ....  0.300
Updating the Hessian (Bofill)           .... done
Diagonalizing the Hessian               .... done
Dimension of the hessian                ....   7
Lowest eigenvalues of the Hessian:
 -0.033702957  0.296653141  0.297430639  0.402055345  0.407838758
Hessian has   1 negative eigenvalues
Taking P-RFO step
Searching for lambda that maximizes along the lowest mode
TS mode is mode number   0 with eigenvalue  -0.03370296 and components:
   1.   -0.02695706
   2.   -0.02169453
   3.   -0.01810871
   4.    0.02273152
   5.    0.02675221
   6.    0.05069799
   7.   -0.99733247

Lambda that maximizes along the TS mode:       0.00043176
Searching for lambda that minimizes along all other modes
In cycle   1: lambdaN =  -0.00859419   step =   0.00859419
In cycle   2: lambdaN =  -0.00860077   step =   0.00000658
In cycle   3: lambdaN =  -0.00860077   step =   0.00000000
Lambda that minimizes along all other modes:  -0.00860077
The final length of the internal step   ....       0.1995
Converting the step to Cartesian space:
 Initial RMS(Int)=    0.0754076749
Transforming coordinates:
 Iter   0:  RMS(Cart)=    0.0461418257 RMS(Int)=    0.0780654209
 Iter   5:  RMS(Cart)=    0.0000001045 RMS(Int)=    0.0000001399
done
Storing new coordinates                 .... done
The predicted energy change is          ....    -0.004198554
Previously predicted energy change      ....    32.315334151
Actually observed energy change         ....    -0.002334353
Ratio of predicted to observed change   ....     0.000072237
New trust radius                        ....     0.200000000

                                .--------------------.
          ----------------------|Geometry convergence|-------------------------
          Item                value                   Tolerance       Converged
          ---------------------------------------------------------------------
          Energy change      -0.0023343533            0.0000050000      NO
          RMS gradient        0.0199092682            0.0001000000      NO
          MAX gradient        0.0389093808            0.0003000000      NO
          RMS step            0.0754076749            0.0020000000      NO
          MAX step            0.1223964702            0.0040000000      NO
          -------------------------------------------------------------------------
          ........................................................
          Max(Bonds)      0.0205      Max(Angles)    7.01
          Max(Dihed)        0.00      Max(Improp)    6.50
          ---------------------------------------------------------------------

The optimization has not yet converged - more geometry cycles are needed


    ---------------------------------------------------------------------------
                         Redundant Internal Coordinates
                            (Angstroem and degrees)

        Definition                    Value    dE/dq     Step     New-Value  comp.(TS mode)
    ----------------------------------------------------------------------------
     1. B(H   1,N   0)                1.0088  0.015015 -0.0205    0.9883   
     2. B(H   2,N   0)                1.0068  0.012061 -0.0161    0.9907   
     3. B(H   3,N   0)                1.0160  0.009922 -0.0135    1.0024   
     4. A(H   1,N   0,H   3)          109.13 -0.016410    3.19    112.32   
     5. A(H   2,N   0,H   3)          106.50 -0.022547    4.35    110.85   
     6. A(H   1,N   0,H   2)          143.35  0.038909   -7.01    136.34   
     7. I(H   1,H   3,H   2,N   0)      8.21 -0.003699   -6.50      1.71          1.00
    ----------------------------------------------------------------------------

Geometry step timings:
Preparation and reading OPT file:      0.000 s ( 3.265 %)
Internal coordinates            :      0.000 s ( 4.082 %)
B/P matrices and projection     :      0.000 s (19.592 %)
Hessian update/contruction      :      0.000 s (20.408 %)
Making the step                 :      0.000 s (17.143 %)
Converting the step to Cartesian:      0.000 s ( 5.714 %)
Storing new data                :      0.000 s ( 3.265 %)
Checking convergence            :      0.000 s ( 9.796 %)
Final printing                  :      0.000 s (16.735 %)
Total time                      :      0.000 s

Time for energy+gradient        :      0.245 s
Time for complete geometry iter :      0.253 s

         *************************************************************
         *                GEOMETRY OPTIMIZATION CYCLE   3            *
         *************************************************************
---------------------------------
CARTESIAN COORDINATES (ANGSTROEM)
---------------------------------
  N     -1.616700    0.749149    0.021498
  H     -2.254509    0.606011   -0.719808
  H     -0.806957    1.298415    0.176728
  H     -1.862631    0.231424    0.843902

----------------------------
CARTESIAN COORDINATES (A.U.)
----------------------------
  NO LB      ZA    FRAG     MASS         X           Y           Z
   0 N     7.0000    0    14.007   -3.055120    1.415686    0.040626
   1 H     1.0000    0     1.008   -4.260404    1.145196   -1.360241
   2 H     1.0000    0     1.008   -1.524929    2.453649    0.333967
   3 H     1.0000    0     1.008   -3.519862    0.437328    1.594744

--------------------------------
INTERNAL COORDINATES (ANGSTROEM)
--------------------------------
 N      0   0   0     0.000000000000     0.00000000     0.00000000
 H      1   0   0     0.988344181665     0.00000000     0.00000000
 H      1   2   0     0.990692963937   136.49207910     0.00000000
 H      1   2   3     1.002431643272   112.47173972   177.43474104

---------------------------
INTERNAL COORDINATES (A.U.)
---------------------------
 N      0   0   0     0.000000000000     0.00000000     0.00000000
 H      1   0   0     1.867699829402     0.00000000     0.00000000
 H      1   2   0     1.872138384643   136.49207910     0.00000000
 H      1   2   3     1.894321273762   112.47173972   177.43474104

------------------------------------------------------------------------------
                   ___                                                        
                  /   \      - P O W E R E D   B Y -                         
                 /     \                                                     
                 |  |  |   _    _      __       _____    __    __             
                 |  |  |  | |  | |    /  \     |  _  \  |  |  /  |          
                  \  \/   | |  | |   /    \    | | | |  |  | /  /          
                 / \  \   | |__| |  /  /\  \   | |_| |  |  |/  /          
                |  |  |   |  __  | /  /__\  \  |    /   |      \           
                |  |  |   | |  | | |   __   |  |    \   |  |\   \          
                \     /   | |  | | |  |  |  |  | |\  \  |  | \   \       
                 \___/    |_|  |_| |__|  |__|  |_| \__\ |__|  \__/        
                                                                              
                      - O R C A' S   B I G   F R I E N D -                    
                                      &                                       
                       - I N T E G R A L  F E E D E R -                       
                                                                              
 v1 FN, 2020, v2 2021, v3 2022-2024                                           
------------------------------------------------------------------------------


----------------------
SHARK INTEGRAL PACKAGE
----------------------

Number of atoms                             ...      4
Number of basis functions                   ...     29
Number of shells                            ...     15
Maximum angular momentum                    ...      2
Integral batch strategy                     ... SHARK/LIBINT Hybrid
RI-J (if used) integral strategy            ... SPLIT-RIJ (Revised 2003 algorithm where possible)
Printlevel                                  ...      1
Contraction scheme used                     ... SEGMENTED contraction
Prescreening option                         ... SCHWARTZ
   Thresh                                   ... 2.500e-11
   Tcut                                     ... 2.500e-12
   Tpresel                                  ... 2.500e-12 
Coulomb Range Separation                    ... NOT USED
Exchange Range Separation                   ... NOT USED
Multipole approximations                    ... NOT USED
Finite Nucleus Model                        ... NOT USED
[...]
Raman-spectrum generation      ... off
Surface Crossing Hessian       ... off

The output will be reduced. Please look at the following files:
SCF program output             ... >ammonia.lastscf
Integral program output        ... >ammonia.lastint
Gradient program output        ... >ammonia.lastgrad
Dipole moment program output   ... >ammonia.lastmom

	<< Calculating gradient on displaced geometry   1 (of  18) >>
	<< Calculating gradient on displaced geometry   2 (of  18) >>
	<< Calculating gradient on displaced geometry   3 (of  18) >>
	<< Calculating gradient on displaced geometry   4 (of  18) >>
	<< Calculating gradient on displaced geometry   5 (of  18) >>
	<< Calculating gradient on displaced geometry   6 (of  18) >>
	<< Calculating gradient on displaced geometry   7 (of  18) >>
	<< Calculating gradient on displaced geometry   8 (of  18) >>
	<< Calculating gradient on displaced geometry   9 (of  18) >>
	<< Calculating gradient on displaced geometry  10 (of  18) >>
	<< Calculating gradient on displaced geometry  11 (of  18) >>
	<< Calculating gradient on displaced geometry  12 (of  18) >>
	<< Calculating gradient on displaced geometry  13 (of  18) >>
	<< Calculating gradient on displaced geometry  14 (of  18) >>
	<< Calculating gradient on displaced geometry  15 (of  18) >>
	<< Calculating gradient on displaced geometry  16 (of  18) >>
	<< Calculating gradient on displaced geometry  17 (of  18) >>
	<< Calculating gradient on displaced geometry  18 (of  18) >>

-----------------------
VIBRATIONAL FREQUENCIES
-----------------------

Scaling factor for frequencies =  1.000000000  (already applied!)

     0:       0.00 cm**-1
     1:       0.00 cm**-1
     2:       0.00 cm**-1
     3:       0.00 cm**-1
     4:       0.00 cm**-1
     5:       0.00 cm**-1
     6:    -893.49 cm**-1  ***imaginary mode***
     7:    1635.01 cm**-1
     8:    1635.52 cm**-1
     9:    3749.26 cm**-1
    10:    3974.77 cm**-1
    11:    3974.93 cm**-1


------------
NORMAL MODES
------------

These modes are the Cartesian displacements weighted by the diagonal matrix
M(i,i)=1/sqrt(m[i]) where m[i] is the mass of the displaced atom
Thus, these vectors are normalized but *not* orthogonal

                  0          1          2          3          4          5    
      0       0.000000   0.000000   0.000000   0.000000   0.000000   0.000000
      1       0.000000   0.000000   0.000000   0.000000   0.000000   0.000000
      2       0.000000   0.000000   0.000000   0.000000   0.000000   0.000000
      3       0.000000   0.000000   0.000000   0.000000   0.000000   0.000000
      4       0.000000   0.000000   0.000000   0.000000   0.000000   0.000000
      5       0.000000   0.000000   0.000000   0.000000   0.000000   0.000000
      6       0.000000   0.000000   0.000000   0.000000   0.000000   0.000000
      7       0.000000   0.000000   0.000000   0.000000   0.000000   0.000000
      8       0.000000   0.000000   0.000000   0.000000   0.000000   0.000000
      9       0.000000   0.000000   0.000000   0.000000   0.000000   0.000000
     10       0.000000   0.000000   0.000000   0.000000   0.000000   0.000000
     11       0.000000   0.000000   0.000000   0.000000   0.000000   0.000000
                  6          7          8          9         10         11    
      0       0.069811   0.009514   0.065819   0.000001   0.057439   0.042081
      1      -0.093818  -0.025465   0.045893  -0.000008   0.015959   0.053912
      2      -0.040290   0.075845   0.007157   0.000015   0.062335  -0.052565
      3      -0.323157   0.308722  -0.384162  -0.323796  -0.446124   0.095373
      4       0.434567   0.301713  -0.431154  -0.036126  -0.048135   0.018798
      5       0.186611  -0.167764   0.338220  -0.476679  -0.660401   0.121398
      6      -0.323523  -0.151819   0.040317   0.464860  -0.427442  -0.495772
      7       0.434656   0.215372   0.055754   0.342542  -0.319347  -0.361585
      8       0.186525  -0.764579  -0.059861   0.008058   0.002699  -0.017400
      9      -0.323400  -0.289107  -0.570766  -0.141076   0.075403  -0.184355
     10       0.434461  -0.163231  -0.262321  -0.306305   0.145715  -0.406364
     11       0.186734  -0.121580  -0.377809   0.468411  -0.208500   0.626433


-----------
IR SPECTRUM
-----------

 Mode   freq       eps      Int      T**2         TX        TY        TZ
       cm**-1   L/(mol*cm) km/mol    a.u.
----------------------------------------------------------------------------
  7:   1635.01   0.007907   39.96  0.001509  (-0.004509  0.012114 -0.036635)
  8:   1635.52   0.007873   39.79  0.001502  (-0.031703 -0.022037 -0.003403)
  9:   3749.26   0.000000    0.00  0.000000  ( 0.000022 -0.000059 -0.000057)
 10:   3974.77   0.008711   44.02  0.000684  (-0.017427 -0.004808 -0.018898)
 11:   3974.93   0.008708   44.01  0.000684  (-0.012732 -0.016397  0.015896)

* The epsilon (eps) is given for a Dirac delta lineshape.
** The dipole moment derivative (T) already includes vibrational overlap.

The first frequency considered to be a vibration is 7
The total number of vibrations considered is 5


--------------------------
THERMOCHEMISTRY AT 298.15K
--------------------------

Temperature         ...   298.15 K
Pressure            ...     1.00 atm
Total Mass          ...    17.03 AMU
Quasi RRHO          ...     True
Cut-Off Frequency   ...     1.00 cm^-1

Throughout the following assumptions are being made:
  (1) The electronic state is orbitally nondegenerate
  (2) There are no thermally accessible electronically excited states
  (3) Hindered rotations indicated by low frequency modes are not
      treated as such but are treated as vibrations and this may
      cause some error
  (4) All equations used are the standard statistical mechanics
      equations for an ideal gas
  (5) All vibrations are strictly harmonic

freq.    1635.01  E(vib)   ...       0.00 
freq.    1635.52  E(vib)   ...       0.00 
freq.    3749.26  E(vib)   ...       0.00 
freq.    3974.77  E(vib)   ...       0.00 
freq.    3974.93  E(vib)   ...       0.00 

------------
INNER ENERGY
------------

The inner energy is: U= E(el) + E(ZPE) + E(vib) + E(rot) + E(trans)
    E(el)   - is the total energy from the electronic structure calculation
              = E(kin-el) + E(nuc-el) + E(el-el) + E(nuc-nuc)
    E(ZPE)  - the the zero temperature vibrational energy from the frequency calculation
    E(vib)  - the the finite temperature correction to E(ZPE) due to population
              of excited vibrational states
    E(rot)  - is the rotational thermal energy
    E(trans)- is the translational thermal energy

Summary of contributions to the inner energy U:
Electronic energy                ...    -56.37129195 Eh
Zero point energy                ...      0.03410298 Eh      21.40 kcal/mol
Thermal vibrational correction   ...      0.00000558 Eh       0.00 kcal/mol
Thermal rotational correction    ...      0.00141627 Eh       0.89 kcal/mol
Thermal translational correction ...      0.00141627 Eh       0.89 kcal/mol
-----------------------------------------------------------------------
Total thermal energy                    -56.33435085 Eh


Summary of corrections to the electronic energy:
(perhaps to be used in another calculation)
Total thermal correction                  0.00283812 Eh       1.78 kcal/mol
Non-thermal (ZPE) correction              0.03410298 Eh      21.40 kcal/mol
-----------------------------------------------------------------------
Total correction                          0.03694110 Eh      23.18 kcal/mol


--------
ENTHALPY
--------

The enthalpy is H = U + kB*T
                kB is Boltzmann's constant
Total thermal energy              ...    -56.33435085 Eh 
Thermal Enthalpy correction       ...      0.00094421 Eh       0.59 kcal/mol
-----------------------------------------------------------------------
Total Enthalpy                    ...    -56.33340664 Eh


Note: Only C1 symmetry has been detected, increase convergence thresholds 
      if your molecule has a higher symmetry. Symmetry factor of 1.0 is   
      used for the rotational entropy correction. 
 

Note: Rotational entropy computed according to Herzberg 
Infrared and Raman Spectra, Chapter V,1, Van Nostrand Reinhold, 1945 
Point Group:  C1, Symmetry Number:   1  
Rotational constants in cm-1:    11.261355    11.255853     5.629302 

Vibrational entropy computed according to the QRRHO of S. Grimme
Chem.Eur.J. 2012 18 9955 using a reference frequency of 100.0 cm-1


-------
ENTROPY
-------

The entropy contributions are T*S = T*(S(el)+S(vib)+S(rot)+S(trans))
     S(el)   - electronic entropy
     S(vib)  - vibrational entropy
     S(rot)  - rotational entropy
     S(trans)- translational entropy
The entropies will be listed as multiplied by the temperature to get
units of energy

Electronic entropy                ...      0.00000000 Eh      0.00 kcal/mol
Vibrational entropy               ...      0.00000628 Eh      0.00 kcal/mol
Rotational entropy                ...      0.00640906 Eh      4.02 kcal/mol
Translational entropy             ...      0.01636425 Eh     10.27 kcal/mol
-----------------------------------------------------------------------
Final entropy term                ...      0.02277959 Eh     14.29 kcal/mol

In case the symmetry of your molecule has not been determined correctly
or in case you have a reason to use a different symmetry number we print 
out the resulting rotational entropy values for sn=1,12:

 non-linear molecules -----------------------------------
|  sn= 1 | S(rot)=       0.00640906 Eh      4.02 kcal/mol|
|  sn= 2 | S(rot)=       0.00575460 Eh      3.61 kcal/mol|
|  sn= 3 | S(rot)=       0.00537177 Eh      3.37 kcal/mol|
|  sn= 4 | S(rot)=       0.00510014 Eh      3.20 kcal/mol|
|  sn= 5 | S(rot)=       0.00488946 Eh      3.07 kcal/mol|
|  sn= 6 | S(rot)=       0.00471731 Eh      2.96 kcal/mol|
|  sn= 7 | S(rot)=       0.00457177 Eh      2.87 kcal/mol|
|  sn= 8 | S(rot)=       0.00444569 Eh      2.79 kcal/mol|
|  sn= 9 | S(rot)=       0.00433448 Eh      2.72 kcal/mol|
|  sn=10 | S(rot)=       0.00423500 Eh      2.66 kcal/mol|
|  sn=11 | S(rot)=       0.00414501 Eh      2.60 kcal/mol|
|  sn=12 | S(rot)=       0.00406286 Eh      2.55 kcal/mol|
 linear molecules ---------------------------------------
|  Dinfh | S(rot)=       0.00369428 Eh      2.32 kcal/mol|
|  Cinfv | S(rot)=       0.00434873 Eh      2.73 kcal/mol|
 --------------------------------------------------------


-------------------
GIBBS FREE ENERGY
-------------------

The Gibbs free energy is G = H - T*S

Total enthalpy                    ...    -56.33340664 Eh 
Total entropy correction          ...     -0.02277959 Eh    -14.29 kcal/mol
-----------------------------------------------------------------------
Final Gibbs free energy         ...    -56.35618623 Eh

For completeness - the Gibbs free energy minus the electronic energy
G-E(el)                           ...      0.01510572 Eh      9.48 kcal/mol





--------------------------------------------------------------------------------
                   Intrinsic Reaction Coordinate Calculation
--------------------------------------------------------------------------------

System:
Nr. of atoms                        .... 4
Algorithm: SD (steepest descent step) plus correction
Settings:
Max. no of cycles        MaxIter    .... 20
Direction                           .... Forward and backward
Initial displacement Hessian type   .... Read
Hessian Filename                    .... ammonia.hess
Following Hessian mode              .... 0
Initial displacement type           .... Energy
  Initial displacement energy change.... 2.000 mEh
Coordinate system following type    .... Cartesian
Length of steepest descent step     .... 0.150 bohr
Do parabolic fit 
  if SD step is uphill              .... YES
Do Correction to SD step            .... YES
Scaling for length of correction
  compared to SD step               .... 0.333
Do parabolic fit to SD correction   .... YES
Only interpolate for parabolic fit  .... YES
Do update to length of
  SD step and correction            .... YES
Convergence Tolerances:
  Max. Gradient            TolMAXG  ....  2.0000e-03 Eh/bohr
  RMS Gradient             TolRMSG  ....  5.0000e-04 Eh/bohr
Storing full IRC trajectory in      .... ammonia_IRC_Full_trj.xyz
Storing forward trajectory in       .... ammonia_IRC_F_trj.xyz
Storing backward trajectory in      .... ammonia_IRC_B_trj.xyz


 ...good, the file ammonia.hess exists
Reading the hessian file           ...... done
Determining length of initial displacement:
  Requested energy change (quadratic behavior): 2.000 mEh
  Resulting scaling factor for initial displacement along normalized TS mode: 0.3312

         *************************************************************
         *                          FORWARD IRC                      *
         *************************************************************

Iteration    E(Eh)      dE(kcal/mol)  max(|G|)   RMS(G) 
Convergence thresholds                0.002000  0.000500            
    0       -56.373080   -1.121896    0.010357  0.005467
    1       -56.376208   -3.085151    0.013304  0.006487
    2       -56.379268   -5.004798    0.010797  0.005289
    3       -56.380754   -5.937690    0.005540  0.002965
    4       -56.380864   -6.006406    0.003585  0.001880
    5       -56.380916   -6.038968    0.002840  0.001335
    6       -56.380947   -6.058649    0.002181  0.000972
    7       -56.380965   -6.070066    0.001386  0.000659
    8       -56.380979   -6.078438    0.000707  0.000346

                      ***********************HURRAY********************
                      ***            THE IRC HAS CONVERGED          ***
                      *************************************************


         *************************************************************
         *                          BACKWARD IRC                     *
         *************************************************************

Iteration    E(Eh)      dE(kcal/mol)  max(|G|)   RMS(G) 
Convergence thresholds                0.002000  0.000500            
    0       -56.373076   -1.119359    0.010301  0.005462
    1       -56.376204   -3.082339    0.012859  0.006489
    2       -56.379259   -4.999563    0.013759  0.005376
    3       -56.380730   -5.922163    0.006716  0.003254
    4       -56.380853   -5.999916    0.003909  0.002003
    5       -56.380910   -6.035506    0.002897  0.001401
    6       -56.380944   -6.056476    0.002307  0.001011
    7       -56.380964   -6.069185    0.001524  0.000675
    8       -56.380978   -6.078013    0.000662  0.000367

                      ***********************HURRAY********************
                      ***            THE IRC HAS CONVERGED          ***
                      *************************************************


---------------------------------------------------------------
                       IRC PATH SUMMARY              
---------------------------------------------------------------
All gradients are in Eh/Bohr.

Step        E(Eh)      dE(kcal/mol)  max(|G|)   RMS(G) 
   1       -56.380978   -6.078013    0.000662  0.000367
   2       -56.380964   -6.069185    0.001524  0.000675
   3       -56.380944   -6.056476    0.002307  0.001011
   4       -56.380910   -6.035506    0.002897  0.001401
   5       -56.380853   -5.999916    0.003909  0.002003
   6       -56.380730   -5.922163    0.006716  0.003254
   7       -56.379259   -4.999563    0.013759  0.005376
   8       -56.376204   -3.082339    0.012859  0.006489
   9       -56.373076   -1.119359    0.010301  0.005462
  10       -56.371292    0.000000    0.000041  0.000023 <= TS
  11       -56.373080   -1.121896    0.010357  0.005467
  12       -56.376208   -3.085151    0.013304  0.006487
  13       -56.379268   -5.004798    0.010797  0.005289
  14       -56.380754   -5.937690    0.005540  0.002965
  15       -56.380864   -6.006406    0.003585  0.001880
  16       -56.380916   -6.038968    0.002840  0.001335
  17       -56.380947   -6.058649    0.002181  0.000972
  18       -56.380965   -6.070066    0.001386  0.000659
  19       -56.380979   -6.078438    0.000707  0.000346

--------------------------------
SUGGESTED CITATIONS FOR THIS RUN
--------------------------------

Below you find a list of papers that are relevant to this ORCA run
We neither can nor want to force you to cite these papers, but we appreciate if you do
You receive ORCA, which is the product of decades of hard work by many enthusiastic individuals, for free
The only thing we kindly ask in return is that you cite our papers,
We deeply appreciate it, if you show your appreciation for ORCA by not just citing the generic ORCA reference.

Please note that relegating all ORCA citations to the supporting information does *not* help us.
SI sections are not indexed - citations you put there will not count into any citation statistics
But we need these citations in order to attract the funding resources that allow us to do what we are doing

Therefore, if you are a happy ORCA user, please consider citing a few of the papers listed below in the main body of your paper

In addition to the list printed below, the program has created the file ammonia.bibtex that contains the list in bibtex format
You can import this file easily into all common literature databanks and citation aid programs


List of essential papers. We consider these as the minimum necessary citations

  1. Neese, F.
     Software update: the ORCA program system, version 6.0
     WIRES Comput. Molec. Sci. 2025 15(1), e70019
     doi.org/10.1002/wcms.7019

List of papers to cite with high priority. The work reported in these papers was absolutely
necessary for this run to complete.
Our perspective: the developers of density functionals and basis sets usually get cited in chemistry papers
Good! But without the algorithms to do something with them, the functionals or basis sets would not do anything.
Hence, in our opinion, the algorithm design and method developments papers are equally worthy of getting cited

  1. Neese, F.
     The SHARK Integral Generation and Digestion System
     J. Comp. Chem. 2022 44(3), 381
     doi.org/10.1002/jcc.26942

List of suggested additional citations. These are papers that are important in the 'surrounding' of 
of this run, or papers that preceded the highly important papers. If you like your results we are grateful for a citation.

  1. Neese, F.
     The ORCA program system
     WIRES Comput. Molec. Sci. 2012 2(1), 73-78
     doi.org/10.1002/wcms.81
  2. Neese, F.
     Software update: the ORCA program system, version 4.0
     WIRES Comput. Molec. Sci. 2018 8(1), 1-6
     doi.org/10.1002/wcms.1327
  3. Neese, F.; Wennmohs, F.; Becker, U.; Riplinger, C.
     The ORCA quantum chemistry program package
     J. Chem. Phys. 2020 152(22), 224108
     doi.org/10.1063/5.0004608
  4. Neese, F.
     Software update: The ORCA program system—Version 5.0
     WIRES Comput. Molec. Sci. 2022 12(1), e1606
     doi.org/10.1002/wcms.1606

List of optional additional citations

  1. Neese, F.
     Approximate second-order SCF convergence for spin unrestricted wavefunctions
     Chem. Phys. Lett. 2000 325(1-3), 93-98
     doi.org/10.1016/s0009-2614(00)00662-x

Timings for individual modules:

Sum of individual times          ...       31.171 sec (=   0.520 min)
Startup calculation              ...        5.068 sec (=   0.084 min)  16.3 %
SCF iterations                   ...        7.425 sec (=   0.124 min)  23.8 %
Property calculations            ...        0.049 sec (=   0.001 min)   0.2 %
MP2 module                       ...       10.411 sec (=   0.174 min)  33.4 %
Geometry relaxation              ...        0.005 sec (=   0.000 min)   0.0 %
Numerical frequency calculation  ...        8.214 sec (=   0.137 min)  26.4 %
                             ****ORCA TERMINATED NORMALLY****
TOTAL RUN TIME: 0 days 0 hours 0 minutes 31 seconds 600 msec
