
                                 *****************
                                 * O   R   C   A *
                                 *****************

                                            #,                                       
                                            ###                                      
                                            ####                                     
                                            #####                                    
                                            ######                                   
                                           ########,                                 
                                     ,,################,,,,,                         
                               ,,#################################,,                 
                          ,,##########################################,,             
                       ,#########################################, ''#####,          
                    ,#############################################,,   '####,        
                  ,##################################################,,,,####,       
                ,###########''''           ''''###############################       
              ,#####''   ,,,,##########,,,,          '''####'''          '####       
            ,##' ,,,,###########################,,,                        '##       
           ' ,,###''''                  '''############,,,                           
         ,,##''                                '''############,,,,        ,,,,,,###''
      ,#''                                            '''#######################'''  
     '                                                          ''''####''''         
             ,#######,   #######,   ,#######,      ##                                
            ,#'     '#,  ##    ##  ,#'     '#,    #''#        ,####,    ,#,          
            ##       ##  ##   ,#'  ##            #'  '#       #'       ,# #          
            ##       ##  #######   ##           ,######,      #####,      #          
            '#,     ,#'  ##    ##  '#,     ,#' ,#      #,     #,   #      #          
             '#######'   ##     ##  '#######'  #'      '#     '####' #    #          



                #########################################################
                #                        -***-                          #
                #          Department of theory and spectroscopy        #
                #                                                       #
                #                      Frank Neese                      #
                #                                                       #
                #     Directorship, Architecture, Infrastructure        #
                #                    SHARK, DRIVERS                     #
                #        Core code/Algorithms in most modules           #
                #                                                       #
                #        Max Planck Institute fuer Kohlenforschung      #
                #                Kaiser Wilhelm Platz 1                 #
                #                 D-45470 Muelheim/Ruhr                 #
                #                      Germany                          #
                #                                                       #
                #                  All rights reserved                  #
                #                        -***-                          #
                #########################################################


                         Program Version 6.1.0  -  RELEASE   -
                                (GIT: $679e74b$)
                          ($2025-06-10 18:02:51 +0200$)


 With contributions from (in alphabetic order):
[Max-Planck-Institut fuer Kohlenforschung]                               
  Daniel Aravena         : Magnetic Suceptibility                        
  Michael Atanasov       : Ab Initio Ligand Field Theory (pilot matlab implementation)
  Alexander A. Auer      : GIAO ZORA, VPT2 properties, NMR spectrum      
  Ute Becker             : All parallelization in ORCA, NUMFREQ, NUMCALC 
  Giovanni Bistoni       : ED, misc. LED, open-shell LED, HFLD           
  Dmytro Bykov           : pre 5.0 version of the SCF Hessian            
  Marcos Casanova-Páez   : Triplet and SCS-CIS(D). UHF-(DLPNO)-IP/EA/STEOM-CCSD. UHF-CVS-IP/STEOM-CCSD   
  Vijay G. Chilkuri      : MRCI spin determinant printing, contributions to CSF-ICE 
  Pauline Colinet        : FMM embedding                                 
  Dipayan Datta          : RHF DLPNO-CCSD density                        
  Achintya Kumar Dutta   : EOM-CC, STEOM-CC                              
  Nicolas Foglia         : Exact transition moments, OPA infrastructure, MCD improvements    
  Dmitry Ganyushin       : Spin-Orbit,Spin-Spin,Magnetic field MRCI      
  Miquel Garcia-Rates    : C-PCM and meta-GGA Hessian, CCSD/C-PCM, Gaussian charge scheme 
  Tiago L. C. Gouveia    : GS-ROHF, GS-ROCIS                             
  Yang Guo               : DLPNO-NEVPT2, F12-NEVPT2, CIM, IAO-localization        
  Andreas Hansen         : Spin unrestricted coupled pair/coupled cluster methods 
  Ingolf Harden          : AUTO-CI MPn and infrastructure                
  Benjamin Helmich-Paris : MC-RPA, TRAH-(SCF,CASSCF), AVAS, COSX integrals, SCF dyn. polar., MC-PDFT, srDFT 
  Lee Huntington         : MR-EOM, pCC                                   
  Robert Izsak           : Overlap fitted RIJCOSX, COSX-SCS-MP3, EOM     
  Riya Kayal             : Wick's Theorem for AUTO-CI, AUTO-CI UHF-CCSDT 
  Emily Kempfer          : AUTO-CI RHF CISDT and CCSDT, approximate NEVPT4
  Christian Kollmar      : KDIIS, OOCD, Brueckner-CCSD(T), CCSD density, CASPT2, CASPT2-K, improved NEVPT2 
  Axel Koslowski         : Symmetry handling                             
  Simone Kossmann        : meta-GGA functionals, TD-DFT gradient, OOMP2, (MP2 Hessian; deprecated post 5.0) 
  Lucas Lang             : DCDCAS, Hyperfine gauge corrections, ICE-SOC+SSC
  Marvin Lechner         : AUTO-CI (C++ implementation), FIC-MRCC        
  Spencer Leger          : CASSCF response                               
  Dagmar Lenk            : GEPOL surface, SMD, ORCA-2-JSON               
  Dimitrios Liakos       : Extrapolation schemes; Compound Job, Property file
  Dimitrios Manganas     : Further ROCIS development; embedding schemes. LFT, Crystal Embedding 
  Dimitrios Pantazis     : SARC Basis sets                               
  Anastasios Papadopoulos: AUTO-CI, single reference methods and gradients 
  Taras Petrenko         : pre 6.0 DFT Hessian and TD-DFT gradient,  ECA, NRVS 
  Petra Pikulova         : Analytic Raman intensities                    
  Peter Pinski           : DLPNO-MP2, DLPNO-MP2 Gradient                 
  Shashank Vittal Rao    : ES-AILFT, MagRelax                            
  Christoph Reimann      : Effective Core Potentials                     
  Marius Retegan         : Local ZFS, SOC                                
  Christoph Riplinger    : Optimizer, TS searches, QM/MM, DLPNO-CCSD(T), (RO)-DLPNO pert. Triples 
  Michael Roemelt        : Original ROCIS implementation, recursive CI coupling coefficients
  Masaaki Saitow         : Open-shell DLPNO-CCSD energy and density      
  Barbara Sandhoefer     : DKH picture change effects                    
  Yorick L. A. Schmerwitz: GMF and freeze-and-release deltaSCF, NEB S-IDPP initial path                    
  Kantharuban Sivalingam : CASSCF convergence/infrastructure, NEVPT2, NEVPT3, NEVPT4(SD), FIC-MRCI and CEPA variants
  Bernardo de Souza      : ESD, SOC TD-DFT                               
  Georgi L. Stoychev     : AutoAux, RI-MP2 NMR, DLPNO-MP2 response, X2C  
  Van Anh Tran           : RI-MP2 g-tensors                              
  Willem Van den Heuvel  : Paramagnetic NMR                              
  Zikuan Wang            : NOTCH, Electric field optimization            
  Frank Wennmohs         : Technical directorship and infrastructure     
  Hang Xu                : AUTO-CI-Response properties                   
                                                                         
[FACCTs GmbH]                                                            
  Markus Bursch, Nicolas Foglia, Miquel Garcia-Rates, Ingolf Harden, Hagen Neugebauer, Anastasios Papadopoulos, 
  Christoph Riplinger, Bernardo de Souza, Georgi L. Stoychev                                                    
                                                                 
  APM, various basis sets, CI-OPT, improved COSX, DLPNO-Multilevel,           
  DOCKER, DRACO, updates on ESD, Fragmentator, GOAT, IRC, LR-CPCM, L-BFGS, MBIS, meta-GGA TD-DFT gradient, ML-optimized integration grids, 
  MM, NACMEs, nearIR, NEB, NEB-TS, NL-DFT gradient (VV10), 2- and 3-layer-ONIOM, interface openCOSMO-RS, QMMM,   
  Crystal-QMMM, RESP, rigid body optimization, SF, symmetry and pop. for TD-DFT, various functionals, SOLVATOR                                   
                                                                         
[Other institutions]                                                     
  V. Asgeirsson          : NEB                                           
  Christoph Bannwarth    : sTDA-DFT, sTD-DFT, PBEh-3c, B97-3c, D3        
  Giovanni Bistoni       : ETS/NOCV, ADLD/ADEX, COVALED                  
  Martin Brehm           : Molecular dynamics                            
  Ronald Cardenas        : ETS/NOCV                                      
  Martina Colucci        : COVALED                                       
  Sebastian Ehlert       : rSCAN, r2SCAN, r2SCAN-3c, D4, dhf basis sets  
  Marvin Friede          : D4 for Fr, Ra, Ac-Lr                          
  Lars Goerigk           : TD-DFT with DH, B97 family of functionals     
  Stefan Grimme          : VdW corrections, initial TS optimization, DFT functionals, gCP, sTDA/sTD-DF 
  Waldemar Hujo          : DFT-NL                                        
  H. Jonsson             : NEB                                           
  Holger Kruse           : gCP                                           
  Marcel Mueller         : wB97X-3c, vDZP basis set                      
  Hagen Neugebauer       : wr2SCAN, Native XTB                           
  Gianluca Regni         : ADLD/ADEX                                     
  Tobias Risthaus        : pre 6.0 range-separated hybrid DFT and stability analysis
  Lukas Wittmann         : regularized MP2, r2SCAN double-hybrids, wr2SCAN        
                                                                         
We gratefully acknowledge several colleagues who have allowed us to      
interface, adapt or use parts of their codes:                            
  Ed Valeev, F. Pavosevic, A. Kumar             : LibInt (2-el integral package), F12 methods 
  Garnet Chan, S. Sharma, J. Yang, R. Olivares  : DMRG                   
  Ulf Ekstrom                                   : XCFun DFT Library      
  Mihaly Kallay                                 : mrcc  (arbitrary order and MRCC methods)
  Frank Weinhold                                : gennbo (NPA and NBO analysis)           
  Simon Mueller                                 : openCOSMO-RS                            
  Christopher J. Cramer and Donald G. Truhlar   : smd solvation model                     
  S Lehtola, MJT Oliveira, MAL Marques          : LibXC Library                           
  Liviu Ungur et al                             : ANISO software                          


 Your calculation uses the libint2 library for the computation of 2-el integrals
 For citations please refer to: http://libint.valeyev.net

 Your ORCA version has been built with support for libXC version: 7.0.0
 For citations please refer to: https://libxc.gitlab.io

 This ORCA versions uses:
   CBLAS   interface :  Fast vector & matrix operations
   LAPACKE interface :  Fast linear algebra routines
   SCALAPACK package :  Parallel linear algebra routines
   Shared memory     :  Shared parallel matrices
   BLAS/LAPACK       :  OpenBLAS 0.3.29  USE64BITINT DYNAMIC_ARCH NO_AFFINITY Haswell SINGLE_THREADED
        Core in use  :  Haswell
   Copyright (c) 2011-2014, The OpenBLAS Project


  ***********************************
  * Starting time: Tue Aug 19 14:43:23 2025
  * Host name:     CHEMLAB02
  * Process ID:    3938408
  * Working dir.:  /home/vivek/mm/lab5
  ***********************************



***************************************
The coordinates will be read from file: /home/vivek/mm/lab5/6-311/water/monomer/monomer-input-coordinates.xyz
***************************************


================================================================================

----- Orbital basis set information -----
Your calculation utilizes the basis: 6-311G**
   H, Li - Ne  : R. Krishnan, J. S. Binkley, R. Seeger and J. A. Pople, J. Chem. Phys. 72, 650 (1980).
   Na - Ar     : A. D. McLean and G. S. Chandler J. Chem. Phys. 72, 5639, (1980).
   K  - Ca     : J.-P. Blaudeau, M. P. McGrath, L. A. Curtiss and L. Radom, J. Chem. Phys. 107, 5016 (1997).
   Ga - Kr     : L. A. Curtiss, M. P. McGrath, J.-P. Blandeau, N. E. Davis, R. C. Binning and L. Radom, J. Chem. Phys. 103, 6104 (1995).
   Pol./Diff.
   H, Li - Cl  : T. Clark, J. Chandrasekhar and P. v. R. Schleyer, J. Comp. Chem. 4, 294 (1983).
   H - Ne      : M. J. Frisch, J. A. Pople and J. S. Binkley, J. Chem. Phys. 80, 3265 (1984).

================================================================================
                                        WARNINGS
                       Please study these warnings very carefully!
================================================================================


WARNING: The frozen-core approximation for MP2-gradient calculations is turned on by default.

WARNING: Geometry Optimization
  ===> : Switching off AutoStart
         For restart on a previous wavefunction, please use MOREAD

WARNING: Post HF methods need fully converged wavefunctions
  ===> : Setting SCFConvForced true
         You can overwrite this default with %scf ConvForced false 


================================================================================
                                       INPUT FILE
================================================================================
NAME = /home/vivek/mm/lab5/6-311/water/monomer/monomer.inp
|  1> ! MP2 6-311G** opt numfreq
|  2> 
|  3> * xyzfile 0 1 /home/vivek/mm/lab5/6-311/water/monomer/monomer-input-coordinates.xyz
|  4> 
|  5>                          ****END OF INPUT****
================================================================================

                       *****************************
                       * Geometry Optimization Run *
                       *****************************

Geometry optimization settings:
Update method            Update   .... BFGS
Choice of coordinates    CoordSys .... (2022) Redundant Internals
Initial Hessian          InHess   .... Almloef's Model
Max. no of cycles        MaxIter  .... 50

Convergence Tolerances:
Energy Change            TolE     ....  5.0000e-06 Eh
Max. Gradient            TolMAXG  ....  3.0000e-04 Eh/bohr
RMS Gradient             TolRMSG  ....  1.0000e-04 Eh/bohr
Max. Displacement        TolMAXD  ....  4.0000e-03 bohr
RMS Displacement         TolRMSD  ....  2.0000e-03 bohr
Strict Convergence                .... False

------------------------------------------------------------------------------
                        ORCA OPTIMIZATION COORDINATE SETUP
------------------------------------------------------------------------------

The optimization will be done in redundant internal coordinates (2022)
Making redundant internal coordinates   ...  (2022 redundants) done
Evaluating the initial hessian          ...  (Almloef) done
Evaluating the coordinates              ...  done
Calculating the B-matrix                .... done
Calculating the G-matrix                .... done
The number of degrees of freedom        ....    3

    -----------------------------------------------------------------
                    Redundant Internal Coordinates


    -----------------------------------------------------------------
         Definition                    Initial Value    Approx d2E/dq
    -----------------------------------------------------------------
      1. B(H   1,O   0)                  0.9606         0.518886   
      2. B(H   2,O   0)                  0.9675         0.505759   
      3. A(H   1,O   0,H   2)          104.2052         0.320272   
    -----------------------------------------------------------------

Number of atoms                         .... 3
Number of degrees of freedom            .... 3


         *************************************************************
         *                GEOMETRY OPTIMIZATION CYCLE   1            *
         *************************************************************
---------------------------------
CARTESIAN COORDINATES (ANGSTROEM)
---------------------------------
  O     -1.956517    1.819359   -0.393335
  H     -1.906175    1.150774    0.294514
  H     -1.336672    2.503963   -0.104830

----------------------------
CARTESIAN COORDINATES (A.U.)
----------------------------
  NO LB      ZA    FRAG     MASS         X           Y           Z
   0 O     8.0000    0    15.999   -3.697281    3.438091   -0.743296
   1 H     1.0000    0     1.008   -3.602149    2.174647    0.556550
   2 H     1.0000    0     1.008   -2.525944    4.731805   -0.198100

--------------------------------
INTERNAL COORDINATES (ANGSTROEM)
--------------------------------
 O      0   0   0     0.000000000000     0.00000000     0.00000000
 H      1   0   0     0.960560759703     0.00000000     0.00000000
 H      1   2   0     0.967535824605   104.20516461     0.00000000

---------------------------
INTERNAL COORDINATES (A.U.)
---------------------------
 O      0   0   0     0.000000000000     0.00000000     0.00000000
 H      1   0   0     1.815196770830     0.00000000     0.00000000
 H      1   2   0     1.828377733261   104.20516461     0.00000000

---------------------
BASIS SET INFORMATION
---------------------
There are 2 groups of distinct atoms

 Group   1 Type O   : 11s5p1d contracted to 4s3p1d pattern {6311/311/1}
 Group   2 Type H   : 5s1p contracted to 3s1p pattern {311/1}

Atom   0O    basis set group =>   1
Atom   1H    basis set group =>   2
Atom   2H    basis set group =>   2
------------------------------------------------------------------------------
                             ORCA STARTUP CALCULATIONS
------------------------------------------------------------------------------
------------------------------------------------------------------------------
                   ___                                                        
                  /   \      - P O W E R E D   B Y -                         
                 /     \                                                     
                 |  |  |   _    _      __       _____    __    __             
                 |  |  |  | |  | |    /  \     |  _  \  |  |  /  |          
                  \  \/   | |  | |   /    \    | | | |  |  | /  /          
                 / \  \   | |__| |  /  /\  \   | |_| |  |  |/  /          
                |  |  |   |  __  | /  /__\  \  |    /   |      \           
                |  |  |   | |  | | |   __   |  |    \   |  |\   \          
                \     /   | |  | | |  |  |  |  | |\  \  |  | \   \       
                 \___/    |_|  |_| |__|  |__|  |_| \__\ |__|  \__/        
                                                                              
                      - O R C A' S   B I G   F R I E N D -                    
                                      &                                       
                       - I N T E G R A L  F E E D E R -                       
                                                                              
 v1 FN, 2020, v2 2021, v3 2022-2024                                           
------------------------------------------------------------------------------


----------------------
SHARK INTEGRAL PACKAGE
----------------------

Number of atoms                             ...      3
Number of basis functions                   ...     30
Number of shells                            ...     16
Maximum angular momentum                    ...      2
Integral batch strategy                     ... SHARK/LIBINT Hybrid
RI-J (if used) integral strategy            ... SPLIT-RIJ (Revised 2003 algorithm where possible)
Printlevel                                  ...      1
Contraction scheme used                     ... SEGMENTED contraction
Prescreening option                         ... SCHWARTZ
   Thresh                                   ... 2.500e-11
   Tcut                                     ... 2.500e-12
   Tpresel                                  ... 2.500e-12 
Coulomb Range Separation                    ... NOT USED
Exchange Range Separation                   ... NOT USED
Multipole approximations                    ... NOT USED
Finite Nucleus Model                        ... NOT USED
CABS basis                                  ... NOT available
Auxiliary Coulomb fitting basis             ... NOT available
Auxiliary J/K fitting basis                 ... NOT available
Auxiliary Correlation fitting basis         ... NOT available
Auxiliary 'external' fitting basis          ... NOT available

Checking pre-screening integrals            ... done (  0.0 sec) Dimension = 16
   => SHARK Basis and OBASIS are compatible. Storing Pre-screening
Shell pair information
Shell pair cut-off parameter TPreSel        ...   2.5e-12
Total number of shell pairs                 ...       136
Shell pairs after pre-screening             ...       136
Total number of primitive shell pairs       ...       462
Primitive shell pairs kept                  ...       445
          la=0 lb=0:     55 shell pairs
          la=1 lb=0:     50 shell pairs
          la=1 lb=1:     15 shell pairs
          la=2 lb=0:     10 shell pairs
          la=2 lb=1:      5 shell pairs
          la=2 lb=2:      1 shell pairs

Checking whether 4 symmetric matrices of dimension 30 fit in memory
:Max Core in MB      =   4096.00
 MB in use           =      1.33
 MB left             =   4094.67
 MB needed           =      0.01
 Data fit in memory  = YES
Calculating Nuclear repulsion               ... done (  0.0 sec) ENN=      9.130501196377 Eh

Diagonalization of the overlap matrix:
Smallest eigenvalue                        ... 1.834e-02
Time for diagonalization                   ...    0.000 sec
Threshold for overlap eigenvalues          ... 1.000e-07
Number of eigenvalues below threshold      ... 0
Time for construction of square roots      ...    0.000 sec
Total time needed                          ...    0.001 sec

-------------------
DFT GRID GENERATION
-------------------

General Integration Accuracy     IntAcc      ... 4.388
Radial Grid Type                 RadialGrid  ... OptM3 with GC (2021)
Angular Grid (max. ang.)         AngularGrid ... 4 (Lebedev-302)
Angular grid pruning method      GridPruning ... 4 (adaptive)
Weight generation scheme         WeightScheme... mBecke (2022)
Basis function cutoff            BFCut       ... 1.0000e-11
Integration weight cutoff        WCut        ... 1.0000e-14
Partially contracted basis set               ... off
Rotationally invariant grid construction     ... off
Angular grids for H and He will be reduced by one unit

Total number of grid points                  ...    12757
Total number of batches                      ...      201
Average number of points per batch           ...       63
Average number of grid points per atom       ...     4252
Grids setup in   0.0 sec
Initializing property integral containers    ... done (  0.0 sec)

SHARK setup successfully completed in   0.1 seconds

Maximum memory used throughout the entire STARTUP-calculation: 7.6 MB
-------------------------------------------------------------------------------
                                 ORCA GUESS
                   Start orbitals & Density for SCF / CASSCF
-------------------------------------------------------------------------------

------------
SCF SETTINGS
------------
Hamiltonian:
 Ab initio Hamiltonian  Method          .... Hartree-Fock(GTOs)


General Settings:
 Integral files         IntName         .... /home/vivek/mm/lab5/6-311/water/monomer/monomer
 Hartree-Fock type      HFTyp           .... RHF
 Total Charge           Charge          ....    0
 Multiplicity           Mult            ....    1
 Number of Electrons    NEL             ....   10
 Basis Dimension        Dim             ....   30
 Nuclear Repulsion      ENuc            ....      9.1305011964 Eh

Convergence Acceleration:
 AO-DIIS                CNVDIIS         .... on
   Start iteration      DIISMaxIt       ....    12
   Startup error        DIISStart       ....  0.200000
   # of expansion vecs  DIISMaxEq       ....     5
   Bias factor          DIISBfac        ....   1.050
   Max. coefficient     DIISMaxC        ....  10.000
 MO-DIIS                CNVKDIIS        .... off
 Trust-Rad. Augm. Hess. CNVTRAH         .... auto
   Auto Start mean grad. ratio tolernc. ....  1.125000
   Auto Start start iteration           ....    50
   Auto Start num. interpolation iter.  ....    10
   Max. Number of Micro iterations      ....    24
   Max. Number of Macro iterations      .... Maxiter - #DIIS iter
   Number of Davidson start vectors     ....     2
   Converg. threshold    (grad. norm)   ....   1.000e-05
   Grad. Scal. Fac. for Micro threshold ....   0.100
   Minimum threshold for Micro iter.    ....   1.000e-02
   NR start threshold (gradient norm)   ....   1.000e-04
   Initial trust radius                 ....   0.400
   Minimum AH scaling param. (alpha)    ....   1.000
   Maximum AH scaling param. (alpha)    .... 1000.000
   Quad. conv. algorithm                .... NR
   White noise on init. David. guess    .... on
   Maximum white noise                  ....   0.010
   Pseudo random numbers                .... off
   Inactive MOs                         .... canonical
   Orbital update algorithm             .... Taylor
   Preconditioner                       .... Diag
   Full preconditioner red. dimension   ....   250
 SOSCF                 CNVSOSCF           .... on
   Start iteration     SOSCFMaxIt         ....   150
   Startup grad/error  SOSCFStart         ....  0.003300
   Hessian update      SOSCFHessUp        .... L-BFGS
   Autom. constraints  SOSCFAutoConstrain .... off
 Level Shifting         CNVShift        .... on
   Level shift para.    LevelShift      ....    0.2500
   Turn off err/grad.   ShiftErr        ....    0.0010
 Zerner damping         CNVZerner       .... off
 Static damping         CNVDamp         .... on
   Fraction old density DampFac         ....    0.7000
   Max. Damping (<1)    DampMax         ....    0.9800
   Min. Damping (>=0)   DampMin         ....    0.0000
   Turn off err/grad.   DampErr         ....    0.1000

SCF Procedure:
 Maximum # iterations   MaxIter         ....   125
 SCF integral mode      SCFMode         .... Direct
   Integral package                     .... SHARK and LIBINT hybrid scheme
 Reset frequency        DirectResetFreq ....    20
 Integral Threshold     Thresh          ....  2.500e-11 Eh
 Primitive CutOff       TCut            ....  2.500e-12 Eh

Convergence Tolerance:
 Convergence Check Mode ConvCheckMode   .... Total+1el-Energy
 Convergence forced     ConvForced      .... 1
 Energy Change          TolE            ....  1.000e-08 Eh
 1-El. energy change                    ....  1.000e-05 Eh
 Orbital Gradient       TolG            ....  1.000e-05
 Orbital Rotation angle TolX            ....  1.000e-05
 DIIS Error             TolErr          ....  5.000e-07

------------------------------
INITIAL GUESS: MODEL POTENTIAL
------------------------------
Loading Hartree-Fock densities                     ... done
Calculating cut-offs                               ... done
Initializing the effective Hamiltonian             ... done
Setting up the integral package (SHARK)            ... done
Starting the Coulomb interaction                   ... done (   0.0 sec)
Making the grid                                    ... done (   0.0 sec)
Mapping shells                                     ... done
Starting the XC term evaluation                    ... done (   0.0 sec)
Transforming the Hamiltonian                       ... done (   0.0 sec)
Diagonalizing the Hamiltonian                      ... done (   0.0 sec)
Back transforming the eigenvectors                 ... done (   0.0 sec)
Now organizing SCF variables                       ... done
                      ------------------
                      INITIAL GUESS DONE (   0.0 sec)
                      ------------------
             **** ENERGY FILE WAS UPDATED (/home/vivek/mm/lab5/6-311/water/monomer/monomer.en.tmp) ****
Finished Guess after   0.1 sec
Maximum memory used throughout the entire GUESS-calculation: 3.6 MB

-------------------------------------------------------------------------------------------
                                      ORCA LEAN-SCF
                              memory conserving SCF solver
-------------------------------------------------------------------------------------------

----------------------------------------D-I-I-S--------------------------------------------
Iteration    Energy (Eh)           Delta-E    RMSDP     MaxDP     DIISErr   Damp  Time(sec)
-------------------------------------------------------------------------------------------
               ***  Starting incremental Fock matrix formation  ***
    1    -75.9394252765224138     0.00e+00  5.54e-03  5.33e-02  4.16e-01  0.700   0.0
    2    -75.9814402853128570    -4.20e-02  3.71e-03  3.08e-02  2.46e-01  0.700   0.0
                               ***Turning on AO-DIIS***
    3    -76.0036192286219006    -2.22e-02  1.36e-03  8.50e-03  1.34e-01  0.700   0.0
    4    -76.0169697866290477    -1.34e-02  8.50e-04  5.94e-03  9.15e-02  0.700   0.0
    5    -76.0258288973540175    -8.86e-03  2.08e-03  1.51e-02  6.55e-02  0.000   0.0
    6    -76.0458262654559007    -2.00e-02  2.64e-04  1.88e-03  4.56e-03  0.000   0.0
                              *** Initializing SOSCF ***
---------------------------------------S-O-S-C-F--------------------------------------
Iteration    Energy (Eh)           Delta-E    RMSDP     MaxDP     MaxGrad    Time(sec)
--------------------------------------------------------------------------------------
    7    -76.0458608020655191    -3.45e-05  1.53e-04  1.00e-03  1.16e-03     0.0
               *** Restarting incremental Fock matrix formation ***
    8    -76.0458677391961402    -6.94e-06  6.42e-05  6.32e-04  3.69e-04     0.0
    9    -76.0458685724951664    -8.33e-07  4.62e-05  3.26e-04  1.81e-04     0.0
   10    -76.0458687473072246    -1.75e-07  6.72e-06  5.67e-05  6.80e-05     0.0
   11    -76.0458687607023762    -1.34e-08  1.33e-06  1.28e-05  8.39e-06     0.0
   12    -76.0458687611045434    -4.02e-10  4.04e-07  2.19e-06  2.11e-06     0.0
                 **** Energy Check signals convergence ****

               *****************************************************
               *                     SUCCESS                       *
               *           SCF CONVERGED AFTER  12 CYCLES          *
               *****************************************************

             **** ENERGY FILE WAS UPDATED (/home/vivek/mm/lab5/6-311/water/monomer/monomer.en.tmp) ****

----------------
TOTAL SCF ENERGY
----------------

Total Energy       :        -76.04586876115285 Eh           -2069.31329 eV

Components:
Nuclear Repulsion  :          9.13050119637657 Eh             248.45357 eV
Electronic Energy  :        -85.17636995752942 Eh           -2317.76686 eV
One Electron Energy:       -123.03829840294379 Eh           -3348.04231 eV
Two Electron Energy:         37.86192844541438 Eh            1030.27545 eV

Virial components:
Potential Energy   :       -152.07894937651309 Eh           -4138.27860 eV
Kinetic Energy     :         76.03308061536023 Eh            2068.96531 eV
Virial Ratio       :          2.00016819186713

---------------
SCF CONVERGENCE
---------------

  Last Energy change         ...    4.0217e-10  Tolerance :   1.0000e-08
  Last MAX-Density change    ...    2.1892e-06  Tolerance :   1.0000e-07
  Last RMS-Density change    ...    4.0412e-07  Tolerance :   5.0000e-09
  Last DIIS Error            ...    1.1596e-03  Tolerance :   5.0000e-07
  Last Orbital Gradient      ...    2.1149e-06  Tolerance :   1.0000e-05
  Last Orbital Rotation      ...    3.0356e-06  Tolerance :   1.0000e-05


----------------
ORBITAL ENERGIES
----------------

  NO   OCC          E(Eh)            E(eV) 
   0   2.0000     -20.546297      -559.0932 
   1   2.0000      -1.338136       -36.4125 
   2   2.0000      -0.702211       -19.1081 
   3   2.0000      -0.571196       -15.5430 
   4   2.0000      -0.499381       -13.5888 
   5   0.0000       0.149316         4.0631 
   6   0.0000       0.216291         5.8856 
   7   0.0000       0.562738        15.3129 
   8   0.0000       0.610475        16.6119 
   9   0.0000       0.999808        27.2062 
  10   0.0000       1.003810        27.3151 
  11   0.0000       1.108716        30.1697 
  12   0.0000       1.315250        35.7898 
  13   0.0000       1.486366        40.4461 
  14   0.0000       1.514395        41.2088 
  15   0.0000       1.713675        46.6315 
*Only the first 10 virtual orbitals were printed.

                    ********************************
                    * MULLIKEN POPULATION ANALYSIS *
                    ********************************

-----------------------
MULLIKEN ATOMIC CHARGES
-----------------------
   0 O :   -0.498928
   1 H :    0.249353
   2 H :    0.249576
Sum of atomic charges:    0.0000000

--------------------------------
MULLIKEN REDUCED ORBITAL CHARGES
--------------------------------
  0 O s       :     3.782301  s :     3.782301
      pz      :     1.621872  p :     4.704561
      px      :     1.720217
      py      :     1.362472
      dz2     :     0.001890  d :     0.012067
      dxz     :     0.001730
      dyz     :     0.005052
      dx2y2   :     0.000590
      dxy     :     0.002805

  1 H s       :     0.680411  s :     0.680411
      pz      :     0.025458  p :     0.070237
      px      :     0.018653
      py      :     0.026125

  2 H s       :     0.680912  s :     0.680912
      pz      :     0.017788  p :     0.069512
      px      :     0.025451
      py      :     0.026273



                     *******************************
                     * LOEWDIN POPULATION ANALYSIS *
                     *******************************

----------------------
LOEWDIN ATOMIC CHARGES
----------------------
   0 O :   -0.080939
   1 H :    0.037735
   2 H :    0.043204

-------------------------------
LOEWDIN REDUCED ORBITAL CHARGES
-------------------------------
  0 O s       :     3.368837  s :     3.368837
      pz      :     1.635600  p :     4.697800
      px      :     1.698960
      py      :     1.363240
      dz2     :     0.001751  d :     0.014302
      dxz     :     0.001416
      dyz     :     0.006478
      dx2y2   :     0.000795
      dxy     :     0.003863

  1 H s       :     0.768295  s :     0.768295
      pz      :     0.080817  p :     0.193970
      px      :     0.047233
      py      :     0.065920

  2 H s       :     0.766631  s :     0.766631
      pz      :     0.049083  p :     0.190165
      px      :     0.075128
      py      :     0.065955



                      *****************************
                      * MAYER POPULATION ANALYSIS *
                      *****************************

  NA   - Mulliken gross atomic population
  ZA   - Total nuclear charge
  QA   - Mulliken gross atomic charge
  VA   - Mayer's total valence
  BVA  - Mayer's bonded valence
  FA   - Mayer's free valence

  ATOM       NA         ZA         QA         VA         BVA        FA
  0 O      8.4989     8.0000    -0.4989     1.9195     1.9195     0.0000
  1 H      0.7506     1.0000     0.2494     0.9669     0.9669     0.0000
  2 H      0.7504     1.0000     0.2496     0.9660     0.9660     0.0000

  Mayer bond orders larger than 0.100000
B(  0-O ,  1-H ) :   0.9602 B(  0-O ,  2-H ) :   0.9593 

-------
TIMINGS
-------

Total SCF time: 0 days 0 hours 0 min 0 sec 

Total time                  ....       0.180 sec
Sum of individual times     ....       0.157 sec  ( 87.1%)

SCF preparation             ....       0.039 sec  ( 21.5%)
Fock matrix formation       ....       0.109 sec  ( 60.5%)
  Startup                   ....       0.000 sec  (  0.4% of F)
  Coulomb+Exchange Fock     ....       0.115 sec  (105.2% of F)
Diagonalization             ....       0.000 sec  (  0.0%)
Density matrix formation    ....       0.001 sec  (  0.7%)
Total Energy calculation    ....       0.000 sec  (  0.3%)
Population analysis         ....       0.001 sec  (  0.7%)
Orbital Transformation      ....       0.001 sec  (  0.3%)
Orbital Orthonormalization  ....       0.000 sec  (  0.0%)
DIIS solution               ....       0.004 sec  (  2.1%)
SOSCF solution              ....       0.002 sec  (  1.0%)
Finished LeanSCF after   0.2 sec

Maximum memory used throughout the entire LEANSCF-calculation: 7.1 MB

------------------------------------------------------------------------------
                                ORCA  MP2 
------------------------------------------------------------------------------

Freezing NCore=2 chemical core electrons
MP2 will be done in the AO integral direct mode
The Q1-step will be done using symmetric double matrices
Dimension of the basis                    ...   30
Memory devoted for MP2                    ... 4096 MB   
Memory needed for all in one shot         ...    1 MB
Number of MOs that can be treated together... 38484      
MP2 density construction                  ... relaxed
The MP2 gradient is requested => amplitudes will be stored on disk
Total number of MOs              ...    4
Number of MOs treated per batch  ...    4 
Number of batches necessary      ...    1 
OPERATORS   0/  0 PASS   0
-----------------------------------------------
 MP2 CORRELATION ENERGY   :     -0.217902661 Eh
-----------------------------------------------


---------------------
MP2 DENSITY FORMATION
---------------------

Completing the external part of the density      ... done
Storing the unrelaxed density                    ... done

Calculating G(D)                                 ... done
Completing the Lagrangian                        ... done
Solving the Z-vector equations                   ... 
-------------------
SHARK CP-SCF DRIVER
-------------------

Dimension of the orbital basis          ...     30
Dimension of the CPSCF-problem          ...    125
Number of operators                     ...      1
Max. number of iterations               ...    128
Convergence Tolerance                   ... 1.0e-04
Number of perturbations                 ...      1
Perturbation type                       ... REAL

----------------------------
POPLE LINEAR EQUATION SOLVER
----------------------------

  ITERATION   0:   ||err||_max =   1.9356e-02 (   0.0 sec)
  ITERATION   1:   ||err||_max =   5.4961e-03 (   0.0 sec)
  ITERATION   2:   ||err||_max =   1.0955e-03 (   0.0 sec)
  ITERATION   3:   ||err||_max =   1.5409e-04 (   0.0 sec)
  ITERATION   4:   ||err||_max =   3.8736e-05 (   0.0 sec)
                                                 ... done
Finalizing the relaxed density                   ... done
Transforming P to the AO basis                   ... done
Storing the relaxed density                      ... done

------------------------------------
ENERGY WEIGHTED DENSITY FINALIZATION
------------------------------------

Gathering the parts of the W-matrix              ...                                                      done
Forming the Z-density                            ... done
Transforming Z to the AO basis                   ... done
Calculating G(Z)                                 ... done
Finalizing the W-matrix                          ...                                                      done
Transforming W to the AO basis and storing       ... done

                *********************************************
                * UNRELAXED MP2 DENSITY POPULATION ANALYSIS *
                *********************************************

------------------------------------------------------------------------------
                           ORCA POPULATION ANALYSIS
------------------------------------------------------------------------------
Input electron density              ... /home/vivek/mm/lab5/6-311/water/monomer/monomer.pmp2ur
BaseName (.gbw .S,...)              ... /home/vivek/mm/lab5/6-311/water/monomer/monomer

                    ********************************
                    * MULLIKEN POPULATION ANALYSIS *
                    ********************************

-----------------------
MULLIKEN ATOMIC CHARGES
-----------------------
   0 O :   -0.492114
   1 H :    0.245979
   2 H :    0.246136
Sum of atomic charges:    0.0000000

--------------------------------
MULLIKEN REDUCED ORBITAL CHARGES
--------------------------------
  0 O s       :     3.779334  s :     3.779334
      pz      :     1.614488  p :     4.684735
      px      :     1.712664
      py      :     1.357583
      dz2     :     0.005107  d :     0.028046
      dxz     :     0.004953
      dyz     :     0.008122
      dx2y2   :     0.003885
      dxy     :     0.005979
  1 H s       :     0.681522  s :     0.681522
      pz      :     0.026042  p :     0.072499
      px      :     0.020016
      py      :     0.026441
  2 H s       :     0.682075  s :     0.682075
      pz      :     0.019038  p :     0.071789
      px      :     0.026179
      py      :     0.026572


                     *******************************
                     * LOEWDIN POPULATION ANALYSIS *
                     *******************************

----------------------
LOEWDIN ATOMIC CHARGES
----------------------
   0 O :   -0.075170
   1 H :    0.034894
   2 H :    0.040277

-------------------------------
LOEWDIN REDUCED ORBITAL CHARGES
-------------------------------
  0 O s       :     3.367127  s :     3.367127
      pz      :     1.627854  p :     4.676752
      px      :     1.691338
      py      :     1.357560
      dz2     :     0.005037  d :     0.031291
      dxz     :     0.004785
      dyz     :     0.009949
      dx2y2   :     0.004152
      dxy     :     0.007368
  1 H s       :     0.767311  s :     0.767311
      pz      :     0.082293  p :     0.197796
      px      :     0.048422
      py      :     0.067080
  2 H s       :     0.765720  s :     0.765720
      pz      :     0.050374  p :     0.194004
      px      :     0.076509
      py      :     0.067120


                      *****************************
                      * MAYER POPULATION ANALYSIS *
                      *****************************

  NA   - Mulliken gross atomic population
  ZA   - Total nuclear charge
  QA   - Mulliken gross atomic charge
  VA   - Mayer's total valence
  BVA  - Mayer's bonded valence
  FA   - Mayer's free valence

  ATOM       NA         ZA         QA         VA         BVA        FA
  0 O      8.4921     8.0000    -0.4921     2.1487     1.8357     0.3130
  1 H      0.7540     1.0000     0.2460     0.9751     0.9247     0.0505
  2 H      0.7539     1.0000     0.2461     0.9743     0.9234     0.0510

  Mayer bond orders larger than 0.100000
B(  0-O ,  1-H ) :   0.9185 B(  0-O ,  2-H ) :   0.9172 


                *******************************************
                * RELAXED MP2 DENSITY POPULATION ANALYSIS *
                *******************************************

------------------------------------------------------------------------------
                           ORCA POPULATION ANALYSIS
------------------------------------------------------------------------------
Input electron density              ... /home/vivek/mm/lab5/6-311/water/monomer/monomer.pmp2re
BaseName (.gbw .S,...)              ... /home/vivek/mm/lab5/6-311/water/monomer/monomer

                    ********************************
                    * MULLIKEN POPULATION ANALYSIS *
                    ********************************

-----------------------
MULLIKEN ATOMIC CHARGES
-----------------------
   0 O :   -0.473846
   1 H :    0.236881
   2 H :    0.236965
Sum of atomic charges:    0.0000000

--------------------------------
MULLIKEN REDUCED ORBITAL CHARGES
--------------------------------
  0 O s       :     3.781791  s :     3.781791
      pz      :     1.605029  p :     4.664619
      px      :     1.706317
      py      :     1.353273
      dz2     :     0.005060  d :     0.027435
      dxz     :     0.004936
      dyz     :     0.007782
      dx2y2   :     0.003867
      dxy     :     0.005790
  1 H s       :     0.691259  s :     0.691259
      pz      :     0.025198  p :     0.071860
      px      :     0.021409
      py      :     0.025253
  2 H s       :     0.691892  s :     0.691892
      pz      :     0.020012  p :     0.071144
      px      :     0.025823
      py      :     0.025309


                     *******************************
                     * LOEWDIN POPULATION ANALYSIS *
                     *******************************

----------------------
LOEWDIN ATOMIC CHARGES
----------------------
   0 O :   -0.068308
   1 H :    0.031463
   2 H :    0.036846

-------------------------------
LOEWDIN REDUCED ORBITAL CHARGES
-------------------------------
  0 O s       :     3.368477  s :     3.368477
      pz      :     1.623541  p :     4.669187
      px      :     1.688087
      py      :     1.357558
      dz2     :     0.004975  d :     0.030645
      dxz     :     0.004800
      dyz     :     0.009608
      dx2y2   :     0.004101
      dxy     :     0.007160
  1 H s       :     0.770793  s :     0.770793
      pz      :     0.082337  p :     0.197744
      px      :     0.049496
      py      :     0.065911
  2 H s       :     0.769189  s :     0.769189
      pz      :     0.051272  p :     0.193965
      px      :     0.076772
      py      :     0.065921


                      *****************************
                      * MAYER POPULATION ANALYSIS *
                      *****************************

  NA   - Mulliken gross atomic population
  ZA   - Total nuclear charge
  QA   - Mulliken gross atomic charge
  VA   - Mayer's total valence
  BVA  - Mayer's bonded valence
  FA   - Mayer's free valence

  ATOM       NA         ZA         QA         VA         BVA        FA
  0 O      8.4738     8.0000    -0.4738     2.1615     1.8507     0.3108
  1 H      0.7631     1.0000     0.2369     0.9824     0.9321     0.0503
  2 H      0.7630     1.0000     0.2370     0.9817     0.9309     0.0508

  Mayer bond orders larger than 0.100000
B(  0-O ,  1-H ) :   0.9260 B(  0-O ,  2-H ) :   0.9247 


----------------------------------
MP2 DERIVATIVE INTEGRAL GENERATION
----------------------------------

Input SCF Electron Density              ... /home/vivek/mm/lab5/6-311/water/monomer/monomer.scfp
Input Correlated Electron Density       ... /home/vivek/mm/lab5/6-311/water/monomer/monomer.pmp2re
Input Energy Weighted Density           ... /home/vivek/mm/lab5/6-311/water/monomer/monomer.wmp2.tmp
Input Wavefunction Amplitudes           ... /home/vivek/mm/lab5/6-311/water/monomer/monomer.mp2tsaa.tmp

Nuclear repulsion gradient              ... done (  0.0 sec)
HCore & Overlap gradient  (SHARK)       ... done (  0.0 sec)
Analytic two-electron gradient terms    ... 
  Batch handling in the gradient evaluation:
  General contraction                   ... not used
  Memory available                      ... 4094.5 MB
  Memory per occupied orbital in Q2     ...    0.0 MB
  Memory per occupied orbital in Q3     ...    0.0 MB
  Total memory requirement per |i>      ...    0.0 MB
  Number of orbitals treated per batch  ...      4
  Number of batches to be done          ...      1
done (  0.1 sec)

---------------------------------------
MP2 TOTAL ENERGY:      -76.263771423 Eh
---------------------------------------

The final MP2 gradient
  0:  -0.00440148  -0.00508892  -0.00183984
  1:  -0.00193231  -0.00434359   0.00112766
  2:   0.00633378   0.00943251   0.00071218

-----------------------------------
NORM OF THE MP2 GRADIENT:  0.014217
-----------------------------------

Maximum memory used throughout the entire MP2-calculation: 13.2 MB

-------------------------   --------------------
FINAL SINGLE POINT ENERGY       -76.263771422616
-------------------------   --------------------

------------------------------------------------------------------------------
                         ORCA GEOMETRY RELAXATION STEP
------------------------------------------------------------------------------

Reading the OPT-File                    .... done
Getting information on internals        .... done
Copying old internal coords+grads       .... done
Making the new internal coordinates     .... (2022 redundants) done
Validating the new internal coordinates .... (2022 redundants) done
Calculating the B-matrix                .... done
Calculating the G,G- and P matrices     .... done
Transforming gradient to internals      .... done
Projecting the internal gradient        .... done
Number of atoms                         ....   3
Number of internal coordinates          ....   3
Current Energy                          ....   -76.263771423 Eh
Current gradient norm                   ....     0.014217015 Eh/bohr
Maximum allowed component of the step   ....  0.300
Current trust radius                    ....  0.300
Evaluating the initial hessian          ....  (Almloef) done
Projecting the Hessian                  .... done
Forming the augmented Hessian           .... done
Diagonalizing the augmented Hessian     .... done
Last element of RFO vector              ....  0.999581031
Lowest eigenvalues of augmented Hessian:
 -0.000365820  0.320373842  0.505995519
Length of the computed step             ....  0.028956264
The final length of the internal step   ....  0.028956264
Converting the step to Cartesian space:
 Initial RMS(Int)=    0.0167179067
Transforming coordinates:
 Iter   0:  RMS(Cart)=    0.0103843436 RMS(Int)=    0.0167219507
done
Storing new coordinates                 .... done

                                .--------------------.
          ----------------------|Geometry convergence|-------------------------
          Item                value                   Tolerance       Converged
          ---------------------------------------------------------------------
          RMS gradient        0.0074501098            0.0001000000      NO
          MAX gradient        0.0109442515            0.0003000000      NO
          RMS step            0.0167179067            0.0020000000      NO
          MAX step            0.0216236118            0.0040000000      NO
          -------------------------------------------------------------------------
          ........................................................
          Max(Bonds)      0.0114      Max(Angles)    1.02
          Max(Dihed)        0.00      Max(Improp)    0.00
          ---------------------------------------------------------------------

The optimization has not yet converged - more geometry cycles are needed


    ---------------------------------------------------------------------------
                         Redundant Internal Coordinates
                            (Angstroem and degrees)

        Definition                    Value    dE/dq     Step     New-Value
    ----------------------------------------------------------------------------
     1. B(H   1,O   0)                0.9606  0.003730 -0.0038    0.9568   
     2. B(H   2,O   0)                0.9675  0.010944 -0.0114    0.9561   
     3. A(H   1,O   0,H   2)          104.21  0.005729   -1.02    103.18   
    ----------------------------------------------------------------------------

Geometry step timings:
Preparation and reading OPT file:      0.000 s ( 5.464 %)
Internal coordinates            :      0.000 s ( 4.139 %)
B/P matrices and projection     :      0.000 s (15.563 %)
Hessian update/contruction      :      0.000 s (20.695 %)
Making the step                 :      0.000 s (14.238 %)
Converting the step to Cartesian:      0.000 s ( 6.291 %)
Storing new data                :      0.000 s ( 5.464 %)
Checking convergence            :      0.000 s ( 6.457 %)
Final printing                  :      0.000 s (21.689 %)
Total time                      :      0.001 s

Time for energy+gradient        :      1.166 s
Time for complete geometry iter :      1.212 s

         *************************************************************
         *                GEOMETRY OPTIMIZATION CYCLE   2            *
         *************************************************************
---------------------------------
CARTESIAN COORDINATES (ANGSTROEM)
---------------------------------
  O     -1.956283    1.821731   -0.395166
  H     -1.901474    1.159642    0.293328
  H     -1.341606    2.492723   -0.101814

----------------------------
CARTESIAN COORDINATES (A.U.)
----------------------------
  NO LB      ZA    FRAG     MASS         X           Y           Z
   0 O     8.0000    0    15.999   -3.696840    3.442573   -0.746756
   1 H     1.0000    0     1.008   -3.593265    2.191407    0.554310
   2 H     1.0000    0     1.008   -2.535268    4.710564   -0.192400

--------------------------------
INTERNAL COORDINATES (ANGSTROEM)
--------------------------------
 O      0   0   0     0.000000000000     0.00000000     0.00000000
 H      1   0   0     0.956759930406     0.00000000     0.00000000
 H      1   2   0     0.956093102142   103.18135469     0.00000000

---------------------------
INTERNAL COORDINATES (A.U.)
---------------------------
 O      0   0   0     0.000000000000     0.00000000     0.00000000
 H      1   0   0     1.808014244378     0.00000000     0.00000000
 H      1   2   0     1.806754121580   103.18135469     0.00000000

------------------------------------------------------------------------------
                   ___                                                        
                  /   \      - P O W E R E D   B Y -                         
                 /     \                                                     
                 |  |  |   _    _      __       _____    __    __             
                 |  |  |  | |  | |    /  \     |  _  \  |  |  /  |          
                  \  \/   | |  | |   /    \    | | | |  |  | /  /          
                 / \  \   | |__| |  /  /\  \   | |_| |  |  |/  /          
                |  |  |   |  __  | /  /__\  \  |    /   |      \           
                |  |  |   | |  | | |   __   |  |    \   |  |\   \          
                \     /   | |  | | |  |  |  |  | |\  \  |  | \   \       
                 \___/    |_|  |_| |__|  |__|  |_| \__\ |__|  \__/        
                                                                              
                      - O R C A' S   B I G   F R I E N D -                    
                                      &                                       
                       - I N T E G R A L  F E E D E R -                       
                                                                              
 v1 FN, 2020, v2 2021, v3 2022-2024                                           
------------------------------------------------------------------------------


----------------------
SHARK INTEGRAL PACKAGE
----------------------

Number of atoms                             ...      3
Number of basis functions                   ...     30
Number of shells                            ...     16
Maximum angular momentum                    ...      2
Integral batch strategy                     ... SHARK/LIBINT Hybrid
RI-J (if used) integral strategy            ... SPLIT-RIJ (Revised 2003 algorithm where possible)
Printlevel                                  ...      1
Contraction scheme used                     ... SEGMENTED contraction
Prescreening option                         ... SCHWARTZ
   Thresh                                   ... 2.500e-11
   Tcut                                     ... 2.500e-12
   Tpresel                                  ... 2.500e-12 
Coulomb Range Separation                    ... NOT USED
Exchange Range Separation                   ... NOT USED
Multipole approximations                    ... NOT USED
Finite Nucleus Model                        ... NOT USED
CABS basis                                  ... NOT available
Auxiliary Coulomb fitting basis             ... NOT available
Auxiliary J/K fitting basis                 ... NOT available
Auxiliary Correlation fitting basis         ... NOT available
Auxiliary 'external' fitting basis          ... NOT available

Checking pre-screening integrals            ... done (  0.0 sec) Dimension = 16
   => SHARK Basis and OBASIS are compatible. Storing Pre-screening
Shell pair information
Shell pair cut-off parameter TPreSel        ...   2.5e-12
Total number of shell pairs                 ...       136
Shell pairs after pre-screening             ...       136
Total number of primitive shell pairs       ...       462
Primitive shell pairs kept                  ...       445
          la=0 lb=0:     55 shell pairs
          la=1 lb=0:     50 shell pairs
          la=1 lb=1:     15 shell pairs
          la=2 lb=0:     10 shell pairs
          la=2 lb=1:      5 shell pairs
          la=2 lb=2:      1 shell pairs

Checking whether 4 symmetric matrices of dimension 30 fit in memory
:Max Core in MB      =   4096.00
 MB in use           =      1.34
 MB left             =   4094.66
 MB needed           =      0.01
 Data fit in memory  = YES
Calculating Nuclear repulsion               ... done (  0.0 sec) ENN=      9.205618227506 Eh

Diagonalization of the overlap matrix:
Smallest eigenvalue                        ... 1.773e-02
Time for diagonalization                   ...    0.000 sec
Threshold for overlap eigenvalues          ... 1.000e-07
Number of eigenvalues below threshold      ... 0
Time for construction of square roots      ...    0.000 sec
Total time needed                          ...    0.001 sec

-------------------
DFT GRID GENERATION
-------------------

General Integration Accuracy     IntAcc      ... 4.388
Radial Grid Type                 RadialGrid  ... OptM3 with GC (2021)
Angular Grid (max. ang.)         AngularGrid ... 4 (Lebedev-302)
Angular grid pruning method      GridPruning ... 4 (adaptive)
Weight generation scheme         WeightScheme... mBecke (2022)
Basis function cutoff            BFCut       ... 1.0000e-11
Integration weight cutoff        WCut        ... 1.0000e-14
Partially contracted basis set               ... off
Rotationally invariant grid construction     ... off
Angular grids for H and He will be reduced by one unit

Total number of grid points                  ...    12755
Total number of batches                      ...      201
Average number of points per batch           ...       63
Average number of grid points per atom       ...     4252
Grids setup in   0.1 sec
Initializing property integral containers    ... done (  0.0 sec)

SHARK setup successfully completed in   0.2 seconds

Maximum memory used throughout the entire STARTUP-calculation: 7.7 MB
Occupation numbers will be reassigned to an Aufbau configuration
             **** ENERGY FILE WAS UPDATED (/home/vivek/mm/lab5/6-311/water/monomer/monomer.en.tmp) ****
Finished Guess after   0.0 sec
Maximum memory used throughout the entire GUESS-calculation: 3.6 MB
----------------------------------------D-I-I-S--------------------------------------------
Iteration    Energy (Eh)           Delta-E    RMSDP     MaxDP     DIISErr   Damp  Time(sec)
-------------------------------------------------------------------------------------------
               ***  Starting incremental Fock matrix formation  ***
    1    -76.0463655014046935     0.00e+00  1.18e-04  7.88e-04  6.41e-03  0.700   0.0
    2    -76.0463808777190025    -1.54e-05  1.04e-04  6.72e-04  4.89e-03  0.700   0.0
                               ***Turning on AO-DIIS***
    3    -76.0463923715016108    -1.15e-05  9.50e-05  7.60e-04  3.65e-03  0.700   0.0
                              *** Initializing SOSCF ***
---------------------------------------S-O-S-C-F--------------------------------------
Iteration    Energy (Eh)           Delta-E    RMSDP     MaxDP     MaxGrad    Time(sec)
--------------------------------------------------------------------------------------
    4    -76.0464008458450422    -8.47e-06  2.51e-04  1.94e-03  2.63e-03     0.0
               *** Restarting incremental Fock matrix formation ***
    5    -76.0464233595615298    -2.25e-05  2.51e-05  1.30e-04  1.30e-04     0.0
    6    -76.0464235027581168    -1.43e-07  1.74e-05  1.10e-04  6.94e-05     0.0
    7    -76.0464235324345168    -2.97e-08  3.67e-06  3.24e-05  1.74e-05     0.0
    8    -76.0464235336187784    -1.18e-09  1.19e-06  1.01e-05  4.54e-06     0.0
                 **** Energy Check signals convergence ****

               *****************************************************
               *                     SUCCESS                       *
               *           SCF CONVERGED AFTER   8 CYCLES          *
               *****************************************************

             **** ENERGY FILE WAS UPDATED (/home/vivek/mm/lab5/6-311/water/monomer/monomer.en.tmp) ****

----------------
TOTAL SCF ENERGY
----------------

Total Energy       :        -76.04642353370681 Eh           -2069.32839 eV

Components:
Nuclear Repulsion  :          9.20561822750629 Eh             250.49761 eV
Electronic Energy  :        -85.25204176121311 Eh           -2319.82599 eV
One Electron Energy:       -123.16867517288853 Eh           -3351.59004 eV
Two Electron Energy:         37.91663341167542 Eh            1031.76405 eV

Virial components:
Potential Energy   :       -152.11040891949892 Eh           -4139.13466 eV
Kinetic Energy     :         76.06398538579211 Eh            2069.80627 eV
Virial Ratio       :          1.99976911738195

---------------
SCF CONVERGENCE
---------------

  Last Energy change         ...    1.1843e-09  Tolerance :   1.0000e-08
  Last MAX-Density change    ...    1.0150e-05  Tolerance :   1.0000e-07
  Last RMS-Density change    ...    1.1907e-06  Tolerance :   5.0000e-09
  Last DIIS Error            ...    2.6287e-03  Tolerance :   5.0000e-07
  Last Orbital Gradient      ...    4.5361e-06  Tolerance :   1.0000e-05
  Last Orbital Rotation      ...    4.9911e-06  Tolerance :   1.0000e-05


Total SCF time: 0 days 0 hours 0 min 0 sec 
Finished LeanSCF after   0.3 sec

Maximum memory used throughout the entire LEANSCF-calculation: 7.2 MB

------------------------------------------------------------------------------
                                ORCA  MP2 
------------------------------------------------------------------------------

Freezing NCore=2 chemical core electrons
MP2 will be done in the AO integral direct mode
The Q1-step will be done using symmetric double matrices
Dimension of the basis                    ...   30
Memory devoted for MP2                    ... 4096 MB   
Memory needed for all in one shot         ...    1 MB
Number of MOs that can be treated together... 38484      
MP2 density construction                  ... relaxed
The MP2 gradient is requested => amplitudes will be stored on disk
Total number of MOs              ...    4
Number of MOs treated per batch  ...    4 
Number of batches necessary      ...    1 
OPERATORS   0/  0 PASS   0
-----------------------------------------------
 MP2 CORRELATION ENERGY   :     -0.217532751 Eh
-----------------------------------------------


---------------------
MP2 DENSITY FORMATION
---------------------

Completing the external part of the density      ... done
Storing the unrelaxed density                    ... done

Calculating G(D)                                 ... done
Completing the Lagrangian                        ... done
Solving the Z-vector equations                   ... 
-------------------
SHARK CP-SCF DRIVER
-------------------

Dimension of the orbital basis          ...     30
Dimension of the CPSCF-problem          ...    125
Number of operators                     ...      1
Max. number of iterations               ...    128
Convergence Tolerance                   ... 1.0e-04
Number of perturbations                 ...      1
Perturbation type                       ... REAL

----------------------------
POPLE LINEAR EQUATION SOLVER
----------------------------

  ITERATION   0:   ||err||_max =   1.8871e-02 (   0.0 sec)
  ITERATION   1:   ||err||_max =   5.3030e-03 (   0.0 sec)
  ITERATION   2:   ||err||_max =   1.0550e-03 (   0.0 sec)
  ITERATION   3:   ||err||_max =   1.4828e-04 (   0.0 sec)
  ITERATION   4:   ||err||_max =   3.6158e-05 (   0.0 sec)
                                                 ... done
Finalizing the relaxed density                   ... done
Transforming P to the AO basis                   ... done
Storing the relaxed density                      ... done

------------------------------------
ENERGY WEIGHTED DENSITY FINALIZATION
------------------------------------

Gathering the parts of the W-matrix              ...                                                      done
Forming the Z-density                            ... done
Transforming Z to the AO basis                   ... done
Calculating G(Z)                                 ... done
Finalizing the W-matrix                          ...                                                      done
Transforming W to the AO basis and storing       ... done

----------------------------------
MP2 DERIVATIVE INTEGRAL GENERATION
----------------------------------

Input SCF Electron Density              ... /home/vivek/mm/lab5/6-311/water/monomer/monomer.scfp
Input Correlated Electron Density       ... /home/vivek/mm/lab5/6-311/water/monomer/monomer.pmp2re
Input Energy Weighted Density           ... /home/vivek/mm/lab5/6-311/water/monomer/monomer.wmp2.tmp
Input Wavefunction Amplitudes           ... /home/vivek/mm/lab5/6-311/water/monomer/monomer.mp2tsaa.tmp

Nuclear repulsion gradient              ... done (  0.0 sec)
HCore & Overlap gradient  (SHARK)       ... done (  0.0 sec)
Analytic two-electron gradient terms    ... 
  Batch handling in the gradient evaluation:
  General contraction                   ... not used
  Memory available                      ... 4094.4 MB
  Memory per occupied orbital in Q2     ...    0.0 MB
  Memory per occupied orbital in Q3     ...    0.0 MB
  Total memory requirement per |i>      ...    0.0 MB
  Number of orbitals treated per batch  ...      4
  Number of batches to be done          ...      1
done (  0.1 sec)

---------------------------------------
MP2 TOTAL ENERGY:      -76.263956285 Eh
---------------------------------------

The final MP2 gradient
  0:   0.00189525   0.00052890   0.00231739
  1:  -0.00076664  -0.00013486  -0.00100995
  2:  -0.00112861  -0.00039404  -0.00130744

-----------------------------------
NORM OF THE MP2 GRADIENT:  0.003743
-----------------------------------

Maximum memory used throughout the entire MP2-calculation: 13.2 MB

-------------------------   --------------------
FINAL SINGLE POINT ENERGY       -76.263956284689
-------------------------   --------------------

------------------------------------------------------------------------------
                         ORCA GEOMETRY RELAXATION STEP
------------------------------------------------------------------------------

Reading the OPT-File                    .... done
Getting information on internals        .... done
Copying old internal coords+grads       .... done
Making the new internal coordinates     .... (2022 redundants) done
Validating the new internal coordinates .... (2022 redundants) done
Calculating the B-matrix                .... done
Calculating the G,G- and P matrices     .... done
Transforming gradient to internals      .... done
Projecting the internal gradient        .... done
Number of atoms                         ....   3
Number of internal coordinates          ....   3
Current Energy                          ....   -76.263956285 Eh
Current gradient norm                   ....     0.003742512 Eh/bohr
Maximum allowed component of the step   ....  0.300
Current trust radius                    ....  0.300
Updating the Hessian (BFGS)             .... done
Forming the augmented Hessian           .... done
Diagonalizing the augmented Hessian     .... done
Last element of RFO vector              ....  0.999974070
Lowest eigenvalues of augmented Hessian:
 -0.000016664  0.263570612  0.516584515
Length of the computed step             ....  0.007201525
The final length of the internal step   ....  0.007201525
Converting the step to Cartesian space:
 Initial RMS(Int)=    0.0041578024
Transforming coordinates:
 Iter   0:  RMS(Cart)=    0.0020496589 RMS(Int)=    0.0041572478
done
Storing new coordinates                 .... done
The predicted energy change is          ....    -0.000008332
Previously predicted energy change      ....    -0.000183063
Actually observed energy change         ....    -0.000184862
Ratio of predicted to observed change   ....     1.009825601
New trust radius                        ....     0.450000000

                                .--------------------.
          ----------------------|Geometry convergence|-------------------------
          Item                value                   Tolerance       Converged
          ---------------------------------------------------------------------
          Energy change      -0.0001848621            0.0000050000      NO
          RMS gradient        0.0014426751            0.0001000000      NO
          MAX gradient        0.0019534539            0.0003000000      NO
          RMS step            0.0041578024            0.0020000000      NO
          MAX step            0.0069072043            0.0040000000      NO
          -------------------------------------------------------------------------
          ........................................................
          Max(Bonds)      0.0009      Max(Angles)    0.40
          Max(Dihed)        0.00      Max(Improp)    0.00
          ---------------------------------------------------------------------

The optimization has not yet converged - more geometry cycles are needed


    ---------------------------------------------------------------------------
                         Redundant Internal Coordinates
                            (Angstroem and degrees)

        Definition                    Value    dE/dq     Step     New-Value
    ----------------------------------------------------------------------------
     1. B(H   1,O   0)                0.9568 -0.000677  0.0005    0.9573   
     2. B(H   2,O   0)                0.9561 -0.001403  0.0009    0.9570   
     3. A(H   1,O   0,H   2)          103.18  0.001953   -0.40    102.79   
    ----------------------------------------------------------------------------

Geometry step timings:
Preparation and reading OPT file:      0.000 s ( 4.348 %)
Internal coordinates            :      0.000 s ( 5.034 %)
B/P matrices and projection     :      0.000 s (19.451 %)
Hessian update/contruction      :      0.000 s (26.316 %)
Making the step                 :      0.000 s ( 8.696 %)
Converting the step to Cartesian:      0.000 s ( 7.094 %)
Storing new data                :      0.000 s ( 4.805 %)
Checking convergence            :      0.000 s (10.526 %)
Final printing                  :      0.000 s (13.272 %)
Total time                      :      0.000 s

Time for energy+gradient        :      1.145 s
Time for complete geometry iter :      1.206 s

         *************************************************************
         *                GEOMETRY OPTIMIZATION CYCLE   3            *
         *************************************************************
---------------------------------
CARTESIAN COORDINATES (ANGSTROEM)
---------------------------------
  O     -1.957482    1.821581   -0.396801
  H     -1.900354    1.161038    0.293705
  H     -1.341527    2.491478   -0.100555

----------------------------
CARTESIAN COORDINATES (A.U.)
----------------------------
  NO LB      ZA    FRAG     MASS         X           Y           Z
   0 O     8.0000    0    15.999   -3.699106    3.442289   -0.749846
   1 H     1.0000    0     1.008   -3.591149    2.194043    0.555021
   2 H     1.0000    0     1.008   -2.535119    4.708211   -0.190021

--------------------------------
INTERNAL COORDINATES (ANGSTROEM)
--------------------------------
 O      0   0   0     0.000000000000     0.00000000     0.00000000
 H      1   0   0     0.957277206769     0.00000000     0.00000000
 H      1   2   0     0.957039273615   102.78560102     0.00000000

---------------------------
INTERNAL COORDINATES (A.U.)
---------------------------
 O      0   0   0     0.000000000000     0.00000000     0.00000000
 H      1   0   0     1.808991755039     0.00000000     0.00000000
 H      1   2   0     1.808542126539   102.78560102     0.00000000

------------------------------------------------------------------------------
                   ___                                                        
                  /   \      - P O W E R E D   B Y -                         
                 /     \                                                     
                 |  |  |   _    _      __       _____    __    __             
                 |  |  |  | |  | |    /  \     |  _  \  |  |  /  |          
                  \  \/   | |  | |   /    \    | | | |  |  | /  /          
                 / \  \   | |__| |  /  /\  \   | |_| |  |  |/  /          
                |  |  |   |  __  | /  /__\  \  |    /   |      \           
                |  |  |   | |  | | |   __   |  |    \   |  |\   \          
                \     /   | |  | | |  |  |  |  | |\  \  |  | \   \       
                 \___/    |_|  |_| |__|  |__|  |_| \__\ |__|  \__/        
                                                                              
                      - O R C A' S   B I G   F R I E N D -                    
                                      &                                       
                       - I N T E G R A L  F E E D E R -                       
                                                                              
 v1 FN, 2020, v2 2021, v3 2022-2024                                           
------------------------------------------------------------------------------


----------------------
SHARK INTEGRAL PACKAGE
----------------------

Number of atoms                             ...      3
Number of basis functions                   ...     30
Number of shells                            ...     16
Maximum angular momentum                    ...      2
Integral batch strategy                     ... SHARK/LIBINT Hybrid
RI-J (if used) integral strategy            ... SPLIT-RIJ (Revised 2003 algorithm where possible)
Printlevel                                  ...      1
Contraction scheme used                     ... SEGMENTED contraction
Prescreening option                         ... SCHWARTZ
   Thresh                                   ... 2.500e-11
   Tcut                                     ... 2.500e-12
   Tpresel                                  ... 2.500e-12 
Coulomb Range Separation                    ... NOT USED
Exchange Range Separation                   ... NOT USED
Multipole approximations                    ... NOT USED
Finite Nucleus Model                        ... NOT USED
CABS basis                                  ... NOT available
Auxiliary Coulomb fitting basis             ... NOT available
Auxiliary J/K fitting basis                 ... NOT available
Auxiliary Correlation fitting basis         ... NOT available
Auxiliary 'external' fitting basis          ... NOT available

Checking pre-screening integrals            ... done (  0.0 sec) Dimension = 16
   => SHARK Basis and OBASIS are compatible. Storing Pre-screening
Shell pair information
Shell pair cut-off parameter TPreSel        ...   2.5e-12
Total number of shell pairs                 ...       136
Shell pairs after pre-screening             ...       136
Total number of primitive shell pairs       ...       462
Primitive shell pairs kept                  ...       445
          la=0 lb=0:     55 shell pairs
          la=1 lb=0:     50 shell pairs
          la=1 lb=1:     15 shell pairs
          la=2 lb=0:     10 shell pairs
          la=2 lb=1:      5 shell pairs
          la=2 lb=2:      1 shell pairs

Checking whether 4 symmetric matrices of dimension 30 fit in memory
:Max Core in MB      =   4096.00
 MB in use           =      1.34
 MB left             =   4094.66
 MB needed           =      0.01
 Data fit in memory  = YES
Calculating Nuclear repulsion               ... done (  0.0 sec) ENN=      9.199550567527 Eh

Diagonalization of the overlap matrix:
Smallest eigenvalue                        ... 1.774e-02
Time for diagonalization                   ...    0.000 sec
Threshold for overlap eigenvalues          ... 1.000e-07
Number of eigenvalues below threshold      ... 0
Time for construction of square roots      ...    0.000 sec
Total time needed                          ...    0.001 sec

-------------------
DFT GRID GENERATION
-------------------

General Integration Accuracy     IntAcc      ... 4.388
Radial Grid Type                 RadialGrid  ... OptM3 with GC (2021)
Angular Grid (max. ang.)         AngularGrid ... 4 (Lebedev-302)
Angular grid pruning method      GridPruning ... 4 (adaptive)
Weight generation scheme         WeightScheme... mBecke (2022)
Basis function cutoff            BFCut       ... 1.0000e-11
Integration weight cutoff        WCut        ... 1.0000e-14
Partially contracted basis set               ... off
Rotationally invariant grid construction     ... off
Angular grids for H and He will be reduced by one unit

Total number of grid points                  ...    12754
Total number of batches                      ...      201
Average number of points per batch           ...       63
Average number of grid points per atom       ...     4251
Grids setup in   0.0 sec
Initializing property integral containers    ... done (  0.0 sec)

SHARK setup successfully completed in   0.1 seconds

Maximum memory used throughout the entire STARTUP-calculation: 7.7 MB
Occupation numbers will be reassigned to an Aufbau configuration
             **** ENERGY FILE WAS UPDATED (/home/vivek/mm/lab5/6-311/water/monomer/monomer.en.tmp) ****
Finished Guess after   0.1 sec
Maximum memory used throughout the entire GUESS-calculation: 3.6 MB
----------------------------------------D-I-I-S--------------------------------------------
Iteration    Energy (Eh)           Delta-E    RMSDP     MaxDP     DIISErr   Damp  Time(sec)
-------------------------------------------------------------------------------------------
               ***  Starting incremental Fock matrix formation  ***
                              *** Initializing SOSCF ***
---------------------------------------S-O-S-C-F--------------------------------------
[...]
NORM OF THE MP2 GRADIENT:  0.000002
-----------------------------------

Maximum memory used throughout the entire MP2-calculation: 13.4 MB

-------------------------   --------------------
FINAL SINGLE POINT ENERGY       -76.263971889904
-------------------------   --------------------

                                *** OPTIMIZATION RUN DONE ***


------------------------------------------------------------------------------
                              ORCA PROPERTY CALCULATIONS
------------------------------------------------------------------------------

GBWName                                 ... /home/vivek/mm/lab5/6-311/water/monomer/monomer.gbw
Number of atoms                         ...      3
Number of basis functions               ...     30
Max core memory                         ...   4096 MB

Electric properties:
Dipole moment                           ... YES
Quadrupole moment                       ...  NO
Static polarizability (Dipole/Dipole)   ...  NO
Static polarizability (Dipole/Quad.)    ...  NO
Static polarizability (Quad./Quad.)     ...  NO
Static polarizability (Velocity)        ...  NO
Static hyperpolarizability              ...  NO

Atomic electric properties:
Dipole moment                           ...  NO
Quadrupole moment                       ...  NO
Static polarizability                   ...  NO

Choice of electric origin               ... Center of mass
Position of electric origin             ...    -3.629559     3.443138    -0.647782

General magnetic properties:
Magnetizability                         ...  NO

EPR properties:
g-Tensor (aka g-matrix)                 ...  NO
Zero-Field splitting spin-orbit         ...  NO
Zero-field splitting spin-spin          ...  NO
Hyperfine couplings                     ...  NO (   0 nuclei)
Quadrupole couplings                    ...  NO (   0 nuclei)
Contact density                         ...  NO (   0 nuclei)

NMR properties:
Chemical shifts                         ...  NO (   0 nuclei)
Spin-rotation constants                 ...  NO (   0 nuclei)
Spin-spin couplings                     ...  NO (   0 nuclei,    0 pairs)

Choice of magnetic origin               ... GIAO
Position of magnetic origin             ...     0.000000     0.000000     0.000000

Properties with geometric perturbations:
SCF Hessian                             ...  NO
IR spectrum                             ...  NO
VCD spectrum                            ...  NO
X-ray spectroscopy properties:
SCF XES/XAS/RIXS spectra                ...  NO

SCF SOC stabilization energy            ...  NO
Diagonal Born-Oppenheimer correction    ...  NO

-------------
DIPOLE MOMENT
-------------

Method             : SCF
Type of density    : Electron Density
Multiplicity       :   1
Irrep              :   0
Energy             :   -76.0462531309653968 Eh
Basis              : AO
                                X                 Y                 Z
Electronic contribution:     -0.075747169      -0.001076191      -0.111025097
Nuclear contribution   :      0.562825792       0.008007684       0.824941817
                        -----------------------------------------
Total Dipole Moment    :      0.487078623       0.006931493       0.713916720
                        -----------------------------------------
Magnitude (a.u.)       :      0.864274675
Magnitude (Debye)      :      2.196811640



--------------------
Rotational spectrum 
--------------------
 
Rotational constants in cm-1:            26.162300            14.998645             9.533286 
Rotational constants in MHz :        784326.028667        449648.054930        285800.713248 

Dipole components along the rotational axes: 
x,y,z [a.u.] :     0.000005    -0.864275    -0.000000 
x,y,z [Debye]:     0.000012    -2.196812    -0.000000 

 

-------------
DIPOLE MOMENT
-------------

Method             : MP2
Type of density    : Electron Density
Multiplicity       :   1
Level              : Unrelaxed density
Irrep              :   0
Energy             :     0.0000000000000000 Eh
Basis              : AO
                                X                 Y                 Z
Electronic contribution:     -0.082197560      -0.001167983      -0.120479511
Nuclear contribution   :      0.562825792       0.008007684       0.824941817
                        -----------------------------------------
Total Dipole Moment    :      0.480628232       0.006839701       0.704462306
                        -----------------------------------------
Magnitude (a.u.)       :      0.852829068
Magnitude (Debye)      :      2.167719220



--------------------
Rotational spectrum 
--------------------
 
Rotational constants in cm-1:            26.162300            14.998645             9.533286 
Rotational constants in MHz :        784326.028667        449648.054930        285800.713248 

Dipole components along the rotational axes: 
x,y,z [a.u.] :     0.000005    -0.852829    -0.000000 
x,y,z [Debye]:     0.000012    -2.167719    -0.000000 

 

-------------
DIPOLE MOMENT
-------------

Method             : MP2
Type of density    : Electron Density
Multiplicity       :   1
Level              : Relaxed density
Irrep              :   0
Energy             :     0.0000000000000000 Eh
Basis              : AO
                                X                 Y                 Z
Electronic contribution:     -0.097039649      -0.001379269      -0.142233666
Nuclear contribution   :      0.562825792       0.008007684       0.824941817
                        -----------------------------------------
Total Dipole Moment    :      0.465786143       0.006628415       0.682708151
                        -----------------------------------------
Magnitude (a.u.)       :      0.826493247
Magnitude (Debye)      :      2.100778881



--------------------
Rotational spectrum 
--------------------
 
Rotational constants in cm-1:            26.162300            14.998645             9.533286 
Rotational constants in MHz :        784326.028667        449648.054930        285800.713248 

Dipole components along the rotational axes: 
x,y,z [a.u.] :     0.000004    -0.826493    -0.000000 
x,y,z [Debye]:     0.000011    -2.100779    -0.000000 

 

Dipole moment calculation done in   0.0 sec 

Maximum memory used throughout the entire PROP-calculation: 1.7 MB

----------------------------------------------------------------------------
                           ORCA NUMERICAL FREQUENCIES
----------------------------------------------------------------------------

Number of atoms                ... 3
Central differences            ... used
Translation invariance         ... used
Number of displacements        ... 18 - 6
Numerical increment            ... 5.000e-03 bohr
IR-spectrum generation         ... on
Raman-spectrum generation      ... off
Surface Crossing Hessian       ... off

The output will be reduced. Please look at the following files:
SCF program output             ... >/home/vivek/mm/lab5/6-311/water/monomer/monomer.lastscf
Integral program output        ... >/home/vivek/mm/lab5/6-311/water/monomer/monomer.lastint
Gradient program output        ... >/home/vivek/mm/lab5/6-311/water/monomer/monomer.lastgrad
Dipole moment program output   ... >/home/vivek/mm/lab5/6-311/water/monomer/monomer.lastmom

	<< Calculating gradient on displaced geometry   1 (of  12) >>
	<< Calculating gradient on displaced geometry   2 (of  12) >>
	<< Calculating gradient on displaced geometry   3 (of  12) >>
	<< Calculating gradient on displaced geometry   4 (of  12) >>
	<< Calculating gradient on displaced geometry   5 (of  12) >>
	<< Calculating gradient on displaced geometry   6 (of  12) >>
	<< Calculating gradient on displaced geometry   7 (of  12) >>
	<< Calculating gradient on displaced geometry   8 (of  12) >>
	<< Calculating gradient on displaced geometry   9 (of  12) >>
	<< Calculating gradient on displaced geometry  10 (of  12) >>
	<< Calculating gradient on displaced geometry  11 (of  12) >>
	<< Calculating gradient on displaced geometry  12 (of  12) >>

-----------------------
VIBRATIONAL FREQUENCIES
-----------------------

Scaling factor for frequencies =  1.000000000  (already applied!)

     0:       0.00 cm**-1
     1:       0.00 cm**-1
     2:       0.00 cm**-1
     3:       0.00 cm**-1
     4:       0.00 cm**-1
     5:       0.00 cm**-1
     6:    1666.77 cm**-1
     7:    3904.73 cm**-1
     8:    4011.97 cm**-1


------------
NORMAL MODES
------------

These modes are the Cartesian displacements weighted by the diagonal matrix
M(i,i)=1/sqrt(m[i]) where m[i] is the mass of the displaced atom
Thus, these vectors are normalized but *not* orthogonal

                  0          1          2          3          4          5    
      0       0.000000   0.000000   0.000000   0.000000   0.000000   0.000000
      1       0.000000   0.000000   0.000000   0.000000   0.000000   0.000000
      2       0.000000   0.000000   0.000000   0.000000   0.000000   0.000000
      3       0.000000   0.000000   0.000000   0.000000   0.000000   0.000000
      4       0.000000   0.000000   0.000000   0.000000   0.000000   0.000000
      5       0.000000   0.000000   0.000000   0.000000   0.000000   0.000000
      6       0.000000   0.000000   0.000000   0.000000   0.000000   0.000000
      7       0.000000   0.000000   0.000000   0.000000   0.000000   0.000000
      8       0.000000   0.000000   0.000000   0.000000   0.000000   0.000000
                  6          7          8    
      0       0.039375   0.028706  -0.025896
      1       0.000563   0.000386  -0.061627
      2       0.057710   0.042096   0.018246
      3      -0.475376  -0.011610  -0.043572
      4      -0.392276   0.511847   0.485318
      5      -0.343070  -0.486771  -0.509696
      6      -0.149588  -0.444012   0.454597
      7       0.383345  -0.517970   0.492826
      8      -0.572913  -0.181371   0.220093


-----------
IR SPECTRUM
-----------

 Mode   freq       eps      Int      T**2         TX        TY        TZ
       cm**-1   L/(mol*cm) km/mol    a.u.
----------------------------------------------------------------------------
  6:   1666.77   0.010124   51.16  0.001896  (-0.024436 -0.000453 -0.036031)
  7:   3904.73   0.001251    6.32  0.000100  (-0.005689  0.000030 -0.008221)
  8:   4011.97   0.006585   33.28  0.000512  ( 0.008551  0.020079 -0.005994)

* The epsilon (eps) is given for a Dirac delta lineshape.
** The dipole moment derivative (T) already includes vibrational overlap.

The first frequency considered to be a vibration is 6
The total number of vibrations considered is 3


--------------------------
THERMOCHEMISTRY AT 298.15K
--------------------------

Temperature         ...   298.15 K
Pressure            ...     1.00 atm
Total Mass          ...    18.02 AMU
Quasi RRHO          ...     True
Cut-Off Frequency   ...     1.00 cm^-1

Throughout the following assumptions are being made:
  (1) The electronic state is orbitally nondegenerate
  (2) There are no thermally accessible electronically excited states
  (3) Hindered rotations indicated by low frequency modes are not
      treated as such but are treated as vibrations and this may
      cause some error
  (4) All equations used are the standard statistical mechanics
      equations for an ideal gas
  (5) All vibrations are strictly harmonic

freq.    1666.77  E(vib)   ...       0.00 
freq.    3904.73  E(vib)   ...       0.00 
freq.    4011.97  E(vib)   ...       0.00 

------------
INNER ENERGY
------------

The inner energy is: U= E(el) + E(ZPE) + E(vib) + E(rot) + E(trans)
    E(el)   - is the total energy from the electronic structure calculation
              = E(kin-el) + E(nuc-el) + E(el-el) + E(nuc-nuc)
    E(ZPE)  - the the zero temperature vibrational energy from the frequency calculation
    E(vib)  - the the finite temperature correction to E(ZPE) due to population
              of excited vibrational states
    E(rot)  - is the rotational thermal energy
    E(trans)- is the translational thermal energy

Summary of contributions to the inner energy U:
Electronic energy                ...    -76.26397189 Eh
Zero point energy                ...      0.02183275 Eh      13.70 kcal/mol
Thermal vibrational correction   ...      0.00000244 Eh       0.00 kcal/mol
Thermal rotational correction    ...      0.00141627 Eh       0.89 kcal/mol
Thermal translational correction ...      0.00141627 Eh       0.89 kcal/mol
-----------------------------------------------------------------------
Total thermal energy                    -76.23930416 Eh


Summary of corrections to the electronic energy:
(perhaps to be used in another calculation)
Total thermal correction                  0.00283498 Eh       1.78 kcal/mol
Non-thermal (ZPE) correction              0.02183275 Eh      13.70 kcal/mol
-----------------------------------------------------------------------
Total correction                          0.02466773 Eh      15.48 kcal/mol


--------
ENTHALPY
--------

The enthalpy is H = U + kB*T
                kB is Boltzmann's constant
Total thermal energy              ...    -76.23930416 Eh 
Thermal Enthalpy correction       ...      0.00094421 Eh       0.59 kcal/mol
-----------------------------------------------------------------------
Total Enthalpy                    ...    -76.23835995 Eh


Note: Rotational entropy computed according to Herzberg 
Infrared and Raman Spectra, Chapter V,1, Van Nostrand Reinhold, 1945 
Point Group:  C2v, Symmetry Number:   2  
Rotational constants in cm-1:    26.162323    14.998658     9.533294 

Vibrational entropy computed according to the QRRHO of S. Grimme
Chem.Eur.J. 2012 18 9955 using a reference frequency of 100.0 cm-1


-------
ENTROPY
-------

The entropy contributions are T*S = T*(S(el)+S(vib)+S(rot)+S(trans))
     S(el)   - electronic entropy
     S(vib)  - vibrational entropy
     S(rot)  - rotational entropy
     S(trans)- translational entropy
The entropies will be listed as multiplied by the temperature to get
units of energy

Electronic entropy                ...      0.00000000 Eh      0.00 kcal/mol
Vibrational entropy               ...      0.00000274 Eh      0.00 kcal/mol
Rotational entropy                ...      0.00497243 Eh      3.12 kcal/mol
Translational entropy             ...      0.01644380 Eh     10.32 kcal/mol
-----------------------------------------------------------------------
Final entropy term                ...      0.02141898 Eh     13.44 kcal/mol

In case the symmetry of your molecule has not been determined correctly
or in case you have a reason to use a different symmetry number we print 
out the resulting rotational entropy values for sn=1,12:

 non-linear molecules -----------------------------------
|  sn= 1 | S(rot)=       0.00562689 Eh      3.53 kcal/mol|
|  sn= 2 | S(rot)=       0.00497243 Eh      3.12 kcal/mol|
|  sn= 3 | S(rot)=       0.00458960 Eh      2.88 kcal/mol|
|  sn= 4 | S(rot)=       0.00431798 Eh      2.71 kcal/mol|
|  sn= 5 | S(rot)=       0.00410729 Eh      2.58 kcal/mol|
|  sn= 6 | S(rot)=       0.00393514 Eh      2.47 kcal/mol|
|  sn= 7 | S(rot)=       0.00378960 Eh      2.38 kcal/mol|
|  sn= 8 | S(rot)=       0.00366352 Eh      2.30 kcal/mol|
|  sn= 9 | S(rot)=       0.00355231 Eh      2.23 kcal/mol|
|  sn=10 | S(rot)=       0.00345283 Eh      2.17 kcal/mol|
|  sn=11 | S(rot)=       0.00336284 Eh      2.11 kcal/mol|
|  sn=12 | S(rot)=       0.00328069 Eh      2.06 kcal/mol|
 linear molecules ---------------------------------------
|  Dinfh | S(rot)=       0.00319688 Eh      2.01 kcal/mol|
|  Cinfv | S(rot)=       0.00385133 Eh      2.42 kcal/mol|
 --------------------------------------------------------


-------------------
GIBBS FREE ENERGY
-------------------

The Gibbs free energy is G = H - T*S

Total enthalpy                    ...    -76.23835995 Eh 
Total entropy correction          ...     -0.02141898 Eh    -13.44 kcal/mol
-----------------------------------------------------------------------
Final Gibbs free energy         ...    -76.25977892 Eh

For completeness - the Gibbs free energy minus the electronic energy
G-E(el)                           ...      0.00419297 Eh      2.63 kcal/mol



--------------------------------
SUGGESTED CITATIONS FOR THIS RUN
--------------------------------

Below you find a list of papers that are relevant to this ORCA run
We neither can nor want to force you to cite these papers, but we appreciate if you do
You receive ORCA, which is the product of decades of hard work by many enthusiastic individuals, for free
The only thing we kindly ask in return is that you cite our papers,
We deeply appreciate it, if you show your appreciation for ORCA by not just citing the generic ORCA reference.

Please note that relegating all ORCA citations to the supporting information does *not* help us.
SI sections are not indexed - citations you put there will not count into any citation statistics
But we need these citations in order to attract the funding resources that allow us to do what we are doing

Therefore, if you are a happy ORCA user, please consider citing a few of the papers listed below in the main body of your paper

In addition to the list printed below, the program has created the file /home/vivek/mm/lab5/6-311/water/monomer/monomer.bibtex that contains the list in bibtex format
You can import this file easily into all common literature databanks and citation aid programs


List of essential papers. We consider these as the minimum necessary citations

  1. Neese, F.
     Software update: the ORCA program system, version 6.0
     WIRES Comput. Molec. Sci. 2025 15(1), e70019
     doi.org/10.1002/wcms.7019

List of papers to cite with high priority. The work reported in these papers was absolutely
necessary for this run to complete.
Our perspective: the developers of density functionals and basis sets usually get cited in chemistry papers
Good! But without the algorithms to do something with them, the functionals or basis sets would not do anything.
Hence, in our opinion, the algorithm design and method developments papers are equally worthy of getting cited

  1. Neese, F.
     The SHARK Integral Generation and Digestion System
     J. Comp. Chem. 2022 44(3), 381
     doi.org/10.1002/jcc.26942

List of suggested additional citations. These are papers that are important in the 'surrounding' of 
of this run, or papers that preceded the highly important papers. If you like your results we are grateful for a citation.

  1. Neese, F.
     The ORCA program system
     WIRES Comput. Molec. Sci. 2012 2(1), 73-78
     doi.org/10.1002/wcms.81
  2. Neese, F.
     Software update: the ORCA program system, version 4.0
     WIRES Comput. Molec. Sci. 2018 8(1), 1-6
     doi.org/10.1002/wcms.1327
  3. Neese, F.; Wennmohs, F.; Becker, U.; Riplinger, C.
     The ORCA quantum chemistry program package
     J. Chem. Phys. 2020 152(22), 224108
     doi.org/10.1063/5.0004608
  4. Neese, F.
     Software update: The ORCA program system—Version 5.0
     WIRES Comput. Molec. Sci. 2022 12(1), e1606
     doi.org/10.1002/wcms.1606

List of optional additional citations

  1. Neese, F.
     Approximate second-order SCF convergence for spin unrestricted wavefunctions
     Chem. Phys. Lett. 2000 325(1-3), 93-98
     doi.org/10.1016/s0009-2614(00)00662-x

Timings for individual modules:

Sum of individual times          ...      147.426 sec (=   2.457 min)
Startup calculation              ...        1.165 sec (=   0.019 min)   0.8 %
SCF iterations                   ...        4.984 sec (=   0.083 min)   3.4 %
Property calculations            ...        0.102 sec (=   0.002 min)   0.1 %
MP2 module                       ...        4.053 sec (=   0.068 min)   2.7 %
Geometry relaxation              ...        0.007 sec (=   0.000 min)   0.0 %
Numerical frequency calculation  ...      137.115 sec (=   2.285 min)  93.0 %
                             ****ORCA TERMINATED NORMALLY****
TOTAL RUN TIME: 0 days 0 hours 2 minutes 25 seconds 924 msec
