
                                 *****************
                                 * O   R   C   A *
                                 *****************

                                            #,                                       
                                            ###                                      
                                            ####                                     
                                            #####                                    
                                            ######                                   
                                           ########,                                 
                                     ,,################,,,,,                         
                               ,,#################################,,                 
                          ,,##########################################,,             
                       ,#########################################, ''#####,          
                    ,#############################################,,   '####,        
                  ,##################################################,,,,####,       
                ,###########''''           ''''###############################       
              ,#####''   ,,,,##########,,,,          '''####'''          '####       
            ,##' ,,,,###########################,,,                        '##       
           ' ,,###''''                  '''############,,,                           
         ,,##''                                '''############,,,,        ,,,,,,###''
      ,#''                                            '''#######################'''  
     '                                                          ''''####''''         
             ,#######,   #######,   ,#######,      ##                                
            ,#'     '#,  ##    ##  ,#'     '#,    #''#        ,####,    ,#,          
            ##       ##  ##   ,#'  ##            #'  '#       #'       ,# #          
            ##       ##  #######   ##           ,######,      #####,      #          
            '#,     ,#'  ##    ##  '#,     ,#' ,#      #,     #,   #      #          
             '#######'   ##     ##  '#######'  #'      '#     '####' #    #          



                #########################################################
                #                        -***-                          #
                #          Department of theory and spectroscopy        #
                #                                                       #
                #                      Frank Neese                      #
                #                                                       #
                #     Directorship, Architecture, Infrastructure        #
                #                    SHARK, DRIVERS                     #
                #        Core code/Algorithms in most modules           #
                #                                                       #
                #        Max Planck Institute fuer Kohlenforschung      #
                #                Kaiser Wilhelm Platz 1                 #
                #                 D-45470 Muelheim/Ruhr                 #
                #                      Germany                          #
                #                                                       #
                #                  All rights reserved                  #
                #                        -***-                          #
                #########################################################


                         Program Version 6.1.0  -  RELEASE   -
                                (GIT: $679e74b$)
                          ($2025-06-10 18:02:51 +0200$)


 With contributions from (in alphabetic order):
[Max-Planck-Institut fuer Kohlenforschung]                               
  Daniel Aravena         : Magnetic Suceptibility                        
  Michael Atanasov       : Ab Initio Ligand Field Theory (pilot matlab implementation)
  Alexander A. Auer      : GIAO ZORA, VPT2 properties, NMR spectrum      
  Ute Becker             : All parallelization in ORCA, NUMFREQ, NUMCALC 
  Giovanni Bistoni       : ED, misc. LED, open-shell LED, HFLD           
  Dmytro Bykov           : pre 5.0 version of the SCF Hessian            
  Marcos Casanova-Páez   : Triplet and SCS-CIS(D). UHF-(DLPNO)-IP/EA/STEOM-CCSD. UHF-CVS-IP/STEOM-CCSD   
  Vijay G. Chilkuri      : MRCI spin determinant printing, contributions to CSF-ICE 
  Pauline Colinet        : FMM embedding                                 
  Dipayan Datta          : RHF DLPNO-CCSD density                        
  Achintya Kumar Dutta   : EOM-CC, STEOM-CC                              
  Nicolas Foglia         : Exact transition moments, OPA infrastructure, MCD improvements    
  Dmitry Ganyushin       : Spin-Orbit,Spin-Spin,Magnetic field MRCI      
  Miquel Garcia-Rates    : C-PCM and meta-GGA Hessian, CCSD/C-PCM, Gaussian charge scheme 
  Tiago L. C. Gouveia    : GS-ROHF, GS-ROCIS                             
  Yang Guo               : DLPNO-NEVPT2, F12-NEVPT2, CIM, IAO-localization        
  Andreas Hansen         : Spin unrestricted coupled pair/coupled cluster methods 
  Ingolf Harden          : AUTO-CI MPn and infrastructure                
  Benjamin Helmich-Paris : MC-RPA, TRAH-(SCF,CASSCF), AVAS, COSX integrals, SCF dyn. polar., MC-PDFT, srDFT 
  Lee Huntington         : MR-EOM, pCC                                   
  Robert Izsak           : Overlap fitted RIJCOSX, COSX-SCS-MP3, EOM     
  Riya Kayal             : Wick's Theorem for AUTO-CI, AUTO-CI UHF-CCSDT 
  Emily Kempfer          : AUTO-CI RHF CISDT and CCSDT, approximate NEVPT4
  Christian Kollmar      : KDIIS, OOCD, Brueckner-CCSD(T), CCSD density, CASPT2, CASPT2-K, improved NEVPT2 
  Axel Koslowski         : Symmetry handling                             
  Simone Kossmann        : meta-GGA functionals, TD-DFT gradient, OOMP2, (MP2 Hessian; deprecated post 5.0) 
  Lucas Lang             : DCDCAS, Hyperfine gauge corrections, ICE-SOC+SSC
  Marvin Lechner         : AUTO-CI (C++ implementation), FIC-MRCC        
  Spencer Leger          : CASSCF response                               
  Dagmar Lenk            : GEPOL surface, SMD, ORCA-2-JSON               
  Dimitrios Liakos       : Extrapolation schemes; Compound Job, Property file
  Dimitrios Manganas     : Further ROCIS development; embedding schemes. LFT, Crystal Embedding 
  Dimitrios Pantazis     : SARC Basis sets                               
  Anastasios Papadopoulos: AUTO-CI, single reference methods and gradients 
  Taras Petrenko         : pre 6.0 DFT Hessian and TD-DFT gradient,  ECA, NRVS 
  Petra Pikulova         : Analytic Raman intensities                    
  Peter Pinski           : DLPNO-MP2, DLPNO-MP2 Gradient                 
  Shashank Vittal Rao    : ES-AILFT, MagRelax                            
  Christoph Reimann      : Effective Core Potentials                     
  Marius Retegan         : Local ZFS, SOC                                
  Christoph Riplinger    : Optimizer, TS searches, QM/MM, DLPNO-CCSD(T), (RO)-DLPNO pert. Triples 
  Michael Roemelt        : Original ROCIS implementation, recursive CI coupling coefficients
  Masaaki Saitow         : Open-shell DLPNO-CCSD energy and density      
  Barbara Sandhoefer     : DKH picture change effects                    
  Yorick L. A. Schmerwitz: GMF and freeze-and-release deltaSCF, NEB S-IDPP initial path                    
  Kantharuban Sivalingam : CASSCF convergence/infrastructure, NEVPT2, NEVPT3, NEVPT4(SD), FIC-MRCI and CEPA variants
  Bernardo de Souza      : ESD, SOC TD-DFT                               
  Georgi L. Stoychev     : AutoAux, RI-MP2 NMR, DLPNO-MP2 response, X2C  
  Van Anh Tran           : RI-MP2 g-tensors                              
  Willem Van den Heuvel  : Paramagnetic NMR                              
  Zikuan Wang            : NOTCH, Electric field optimization            
  Frank Wennmohs         : Technical directorship and infrastructure     
  Hang Xu                : AUTO-CI-Response properties                   
                                                                         
[FACCTs GmbH]                                                            
  Markus Bursch, Nicolas Foglia, Miquel Garcia-Rates, Ingolf Harden, Hagen Neugebauer, Anastasios Papadopoulos, 
  Christoph Riplinger, Bernardo de Souza, Georgi L. Stoychev                                                    
                                                                 
  APM, various basis sets, CI-OPT, improved COSX, DLPNO-Multilevel,           
  DOCKER, DRACO, updates on ESD, Fragmentator, GOAT, IRC, LR-CPCM, L-BFGS, MBIS, meta-GGA TD-DFT gradient, ML-optimized integration grids, 
  MM, NACMEs, nearIR, NEB, NEB-TS, NL-DFT gradient (VV10), 2- and 3-layer-ONIOM, interface openCOSMO-RS, QMMM,   
  Crystal-QMMM, RESP, rigid body optimization, SF, symmetry and pop. for TD-DFT, various functionals, SOLVATOR                                   
                                                                         
[Other institutions]                                                     
  V. Asgeirsson          : NEB                                           
  Christoph Bannwarth    : sTDA-DFT, sTD-DFT, PBEh-3c, B97-3c, D3        
  Giovanni Bistoni       : ETS/NOCV, ADLD/ADEX, COVALED                  
  Martin Brehm           : Molecular dynamics                            
  Ronald Cardenas        : ETS/NOCV                                      
  Martina Colucci        : COVALED                                       
  Sebastian Ehlert       : rSCAN, r2SCAN, r2SCAN-3c, D4, dhf basis sets  
  Marvin Friede          : D4 for Fr, Ra, Ac-Lr                          
  Lars Goerigk           : TD-DFT with DH, B97 family of functionals     
  Stefan Grimme          : VdW corrections, initial TS optimization, DFT functionals, gCP, sTDA/sTD-DF 
  Waldemar Hujo          : DFT-NL                                        
  H. Jonsson             : NEB                                           
  Holger Kruse           : gCP                                           
  Marcel Mueller         : wB97X-3c, vDZP basis set                      
  Hagen Neugebauer       : wr2SCAN, Native XTB                           
  Gianluca Regni         : ADLD/ADEX                                     
  Tobias Risthaus        : pre 6.0 range-separated hybrid DFT and stability analysis
  Lukas Wittmann         : regularized MP2, r2SCAN double-hybrids, wr2SCAN        
                                                                         
We gratefully acknowledge several colleagues who have allowed us to      
interface, adapt or use parts of their codes:                            
  Ed Valeev, F. Pavosevic, A. Kumar             : LibInt (2-el integral package), F12 methods 
  Garnet Chan, S. Sharma, J. Yang, R. Olivares  : DMRG                   
  Ulf Ekstrom                                   : XCFun DFT Library      
  Mihaly Kallay                                 : mrcc  (arbitrary order and MRCC methods)
  Frank Weinhold                                : gennbo (NPA and NBO analysis)           
  Simon Mueller                                 : openCOSMO-RS                            
  Christopher J. Cramer and Donald G. Truhlar   : smd solvation model                     
  S Lehtola, MJT Oliveira, MAL Marques          : LibXC Library                           
  Liviu Ungur et al                             : ANISO software                          


 Your calculation uses the libint2 library for the computation of 2-el integrals
 For citations please refer to: http://libint.valeyev.net

 Your ORCA version has been built with support for libXC version: 7.0.0
 For citations please refer to: https://libxc.gitlab.io

 This ORCA versions uses:
   CBLAS   interface :  Fast vector & matrix operations
   LAPACKE interface :  Fast linear algebra routines
   SCALAPACK package :  Parallel linear algebra routines
   Shared memory     :  Shared parallel matrices
   BLAS/LAPACK       :  OpenBLAS 0.3.29  USE64BITINT DYNAMIC_ARCH NO_AFFINITY Haswell SINGLE_THREADED
        Core in use  :  Haswell
   Copyright (c) 2011-2014, The OpenBLAS Project


  ***********************************
  * Starting time: Fri Aug  8 11:40:19 2025
  * Host name:     debian
  * Process ID:    85385
  * Working dir.:  /home/uni/mm/lab4/oh3plus
  ***********************************



***************************************
The coordinates will be read from file: oh3plus-input-coordinates.xyz
***************************************


================================================================================

----- Orbital basis set information -----
Your calculation utilizes the basis: 6-31G(d,p)
   H-He, Li-Ne : W. J. Hehre, R. Ditchfield and J.A. Pople, J. Chem. Phys. 56, 2257 (1972).
                 Note: He and Ne are unpublished basis sets taken from the Gaussian program.
                 Note: Li and B from J. D. Dill and J. A. Pople, J. Chem. Phys. 62, 2921 (1975).
   Na - Ar     : M. M. Francl, W. J. Pietro, W. J. Hehre, J. S. Binkley, M. S. Gordon, 
                 D. J. DeFrees and J. A. Pople, J. Chem. Phys. 77, 3654 (1982).
   K - Zn      : V. A. Rassolov, J. A. Pople, M. A. Ratner, and T. L. Windus, J. Chem. Phys. 109, 1223 (1998).

================================================================================
                                        WARNINGS
                       Please study these warnings very carefully!
================================================================================

WARNING: Old DensityContainer found on disk!
         Will remove this file - 
         If you want to keep old densities, please start your calculation with a different basename. 


WARNING: The frozen-core approximation for MP2-gradient calculations is turned on by default.

WARNING: Geometry Optimization
  ===> : Switching off AutoStart
         For restart on a previous wavefunction, please use MOREAD

WARNING: Post HF methods need fully converged wavefunctions
  ===> : Setting SCFConvForced true
         You can overwrite this default with %scf ConvForced false 


================================================================================
                                       INPUT FILE
================================================================================
NAME = oh3plus.inp
|  1> ! MP2 6-31G(d,p) optts numfreq irc
|  2> 
|  3> * xyzfile 1 1 oh3plus-input-coordinates.xyz
|  4> 
|  5>                          ****END OF INPUT****
================================================================================

                       *****************************
                       * Geometry Optimization Run *
                       *****************************

Geometry optimization settings:
Update method            Update   .... Bofill
Choice of coordinates    CoordSys .... (2022) Redundant Internals
Initial Hessian          InHess   .... Almloef's Model
Max. no of cycles        MaxIter  .... 50

Convergence Tolerances:
Energy Change            TolE     ....  5.0000e-06 Eh
Max. Gradient            TolMAXG  ....  3.0000e-04 Eh/bohr
RMS Gradient             TolRMSG  ....  1.0000e-04 Eh/bohr
Max. Displacement        TolMAXD  ....  4.0000e-03 bohr
RMS Displacement         TolRMSD  ....  2.0000e-03 bohr
Strict Convergence                .... False

------------------------------------------------------------------------------
                        ORCA OPTIMIZATION COORDINATE SETUP
------------------------------------------------------------------------------

The optimization will be done in redundant internal coordinates (2022)
Making redundant internal coordinates   ...  (2022 redundants) done
Following TS mode number                ...     0
Evaluating the initial hessian          ...  (Almloef) done
Evaluating the coordinates              ...  done
Calculating the B-matrix                .... done
Calculating the G-matrix                .... done
The number of degrees of freedom        ....    7

    -----------------------------------------------------------------
                    Redundant Internal Coordinates


    -----------------------------------------------------------------
         Definition                    Initial Value    Approx d2E/dq
    -----------------------------------------------------------------
      1. B(H   1,O   0)                  0.9910         0.463998   
      2. B(H   2,O   0)                  1.0191         0.418533   
      3. B(H   3,O   0)                  0.9910         0.463990   
      4. A(H   1,O   0,H   3)          111.4334         0.310136   
      5. A(H   2,O   0,H   3)          146.6089         0.305034   
      6. A(H   1,O   0,H   2)          101.9049         0.305035   
      7. I(H   1,H   3,H   2,O   0)     -3.1658         0.029746   
    -----------------------------------------------------------------

Number of atoms                         .... 4
Number of degrees of freedom            .... 7


         *************************************************************
         *                GEOMETRY OPTIMIZATION CYCLE   1            *
         *************************************************************
---------------------------------
CARTESIAN COORDINATES (ANGSTROEM)
---------------------------------
  O      1.371352    2.316040    0.140371
  H      2.146021    1.890622    0.588678
  H      1.649870    3.296179    0.124492
  H      0.665341    1.652983   -0.069354

----------------------------
CARTESIAN COORDINATES (A.U.)
----------------------------
  NO LB      ZA    FRAG     MASS         X           Y           Z
   0 O     8.0000    0    15.999    2.591480    4.376681    0.265263
   1 H     1.0000    0     1.008    4.055392    3.572758    1.112440
   2 H     1.0000    0     1.008    3.117802    6.228876    0.235256
   3 H     1.0000    0     1.008    1.257312    3.123685   -0.131060

--------------------------------
INTERNAL COORDINATES (ANGSTROEM)
--------------------------------
 O      0   0   0     0.000000000000     0.00000000     0.00000000
 H      1   0   0     0.990995308028     0.00000000     0.00000000
 H      1   2   0     1.019066670187   101.90490377     0.00000000
 H      1   2   3     0.990999845103   111.43339203   181.91224477

---------------------------
INTERNAL COORDINATES (A.U.)
---------------------------
 O      0   0   0     0.000000000000     0.00000000     0.00000000
 H      1   0   0     1.872709732174     0.00000000     0.00000000
 H      1   2   0     1.925756918860   101.90490377     0.00000000
 H      1   2   3     1.872718306004   111.43339203   181.91224477

---------------------
BASIS SET INFORMATION
---------------------
There are 2 groups of distinct atoms

 Group   1 Type O   : 10s4p1d contracted to 3s2p1d pattern {631/31/1}
 Group   2 Type H   : 4s1p contracted to 2s1p pattern {31/1}

Atom   0O    basis set group =>   1
Atom   1H    basis set group =>   2
Atom   2H    basis set group =>   2
Atom   3H    basis set group =>   2
------------------------------------------------------------------------------
                             ORCA STARTUP CALCULATIONS
------------------------------------------------------------------------------
------------------------------------------------------------------------------
                   ___                                                        
                  /   \      - P O W E R E D   B Y -                         
                 /     \                                                     
                 |  |  |   _    _      __       _____    __    __             
                 |  |  |  | |  | |    /  \     |  _  \  |  |  /  |          
                  \  \/   | |  | |   /    \    | | | |  |  | /  /          
                 / \  \   | |__| |  /  /\  \   | |_| |  |  |/  /          
                |  |  |   |  __  | /  /__\  \  |    /   |      \           
                |  |  |   | |  | | |   __   |  |    \   |  |\   \          
                \     /   | |  | | |  |  |  |  | |\  \  |  | \   \       
                 \___/    |_|  |_| |__|  |__|  |_| \__\ |__|  \__/        
                                                                              
                      - O R C A' S   B I G   F R I E N D -                    
                                      &                                       
                       - I N T E G R A L  F E E D E R -                       
                                                                              
 v1 FN, 2020, v2 2021, v3 2022-2024                                           
------------------------------------------------------------------------------


----------------------
SHARK INTEGRAL PACKAGE
----------------------

Number of atoms                             ...      4
Number of basis functions                   ...     29
Number of shells                            ...     15
Maximum angular momentum                    ...      2
Integral batch strategy                     ... SHARK/LIBINT Hybrid
RI-J (if used) integral strategy            ... SPLIT-RIJ (Revised 2003 algorithm where possible)
Printlevel                                  ...      1
Contraction scheme used                     ... SEGMENTED contraction
Prescreening option                         ... SCHWARTZ
   Thresh                                   ... 2.500e-11
   Tcut                                     ... 2.500e-12
   Tpresel                                  ... 2.500e-12 
Coulomb Range Separation                    ... NOT USED
Exchange Range Separation                   ... NOT USED
Multipole approximations                    ... NOT USED
Finite Nucleus Model                        ... NOT USED
CABS basis                                  ... NOT available
Auxiliary Coulomb fitting basis             ... NOT available
Auxiliary J/K fitting basis                 ... NOT available
Auxiliary Correlation fitting basis         ... NOT available
Auxiliary 'external' fitting basis          ... NOT available

Checking pre-screening integrals            ... done (  0.0 sec) Dimension = 15
   => SHARK Basis and OBASIS are compatible. Storing Pre-screening
Shell pair information
Shell pair cut-off parameter TPreSel        ...   2.5e-12
Total number of shell pairs                 ...       120
Shell pairs after pre-screening             ...       120
Total number of primitive shell pairs       ...       495
Primitive shell pairs kept                  ...       469
          la=0 lb=0:     45 shell pairs
          la=1 lb=0:     45 shell pairs
          la=1 lb=1:     15 shell pairs
          la=2 lb=0:      9 shell pairs
          la=2 lb=1:      5 shell pairs
          la=2 lb=2:      1 shell pairs

Checking whether 4 symmetric matrices of dimension 29 fit in memory
:Max Core in MB      =   4096.00
 MB in use           =      1.32
 MB left             =   4094.68
 MB needed           =      0.01
 Data fit in memory  = YES
Calculating Nuclear repulsion               ... done (  0.0 sec) ENN=     13.634904195077 Eh

Diagonalization of the overlap matrix:
Smallest eigenvalue                        ... 4.156e-02
Time for diagonalization                   ...    0.000 sec
Threshold for overlap eigenvalues          ... 1.000e-07
Number of eigenvalues below threshold      ... 0
Time for construction of square roots      ...    0.000 sec
Total time needed                          ...    0.000 sec

-------------------
DFT GRID GENERATION
-------------------

General Integration Accuracy     IntAcc      ... 4.388
Radial Grid Type                 RadialGrid  ... OptM3 with GC (2021)
Angular Grid (max. ang.)         AngularGrid ... 4 (Lebedev-302)
Angular grid pruning method      GridPruning ... 4 (adaptive)
Weight generation scheme         WeightScheme... mBecke (2022)
Basis function cutoff            BFCut       ... 1.0000e-11
Integration weight cutoff        WCut        ... 1.0000e-14
Partially contracted basis set               ... off
Rotationally invariant grid construction     ... off
Angular grids for H and He will be reduced by one unit

Total number of grid points                  ...    16016
Total number of batches                      ...      253
Average number of points per batch           ...       63
Average number of grid points per atom       ...     4004
Grids setup in   0.0 sec
Initializing property integral containers    ... done (  0.0 sec)

SHARK setup successfully completed in   0.1 seconds

Maximum memory used throughout the entire STARTUP-calculation: 7.7 MB
-------------------------------------------------------------------------------
                                 ORCA GUESS
                   Start orbitals & Density for SCF / CASSCF
-------------------------------------------------------------------------------

------------
SCF SETTINGS
------------
Hamiltonian:
 Ab initio Hamiltonian  Method          .... Hartree-Fock(GTOs)


General Settings:
 Integral files         IntName         .... oh3plus
 Hartree-Fock type      HFTyp           .... RHF
 Total Charge           Charge          ....    1
 Multiplicity           Mult            ....    1
 Number of Electrons    NEL             ....   10
 Basis Dimension        Dim             ....   29
 Nuclear Repulsion      ENuc            ....     13.6349041951 Eh

Convergence Acceleration:
 AO-DIIS                CNVDIIS         .... on
   Start iteration      DIISMaxIt       ....    12
   Startup error        DIISStart       ....  0.200000
   # of expansion vecs  DIISMaxEq       ....     5
   Bias factor          DIISBfac        ....   1.050
   Max. coefficient     DIISMaxC        ....  10.000
 MO-DIIS                CNVKDIIS        .... off
 Trust-Rad. Augm. Hess. CNVTRAH         .... auto
   Auto Start mean grad. ratio tolernc. ....  1.125000
   Auto Start start iteration           ....    50
   Auto Start num. interpolation iter.  ....    10
   Max. Number of Micro iterations      ....    24
   Max. Number of Macro iterations      .... Maxiter - #DIIS iter
   Number of Davidson start vectors     ....     2
   Converg. threshold    (grad. norm)   ....   1.000e-05
   Grad. Scal. Fac. for Micro threshold ....   0.100
   Minimum threshold for Micro iter.    ....   1.000e-02
   NR start threshold (gradient norm)   ....   1.000e-04
   Initial trust radius                 ....   0.400
   Minimum AH scaling param. (alpha)    ....   1.000
   Maximum AH scaling param. (alpha)    .... 1000.000
   Quad. conv. algorithm                .... NR
   White noise on init. David. guess    .... on
   Maximum white noise                  ....   0.010
   Pseudo random numbers                .... off
   Inactive MOs                         .... canonical
   Orbital update algorithm             .... Taylor
   Preconditioner                       .... Diag
   Full preconditioner red. dimension   ....   250
 SOSCF                 CNVSOSCF           .... on
   Start iteration     SOSCFMaxIt         ....   150
   Startup grad/error  SOSCFStart         ....  0.003300
   Hessian update      SOSCFHessUp        .... L-BFGS
   Autom. constraints  SOSCFAutoConstrain .... off
 Level Shifting         CNVShift        .... on
   Level shift para.    LevelShift      ....    0.2500
   Turn off err/grad.   ShiftErr        ....    0.0010
 Zerner damping         CNVZerner       .... off
 Static damping         CNVDamp         .... on
   Fraction old density DampFac         ....    0.7000
   Max. Damping (<1)    DampMax         ....    0.9800
   Min. Damping (>=0)   DampMin         ....    0.0000
   Turn off err/grad.   DampErr         ....    0.1000

SCF Procedure:
 Maximum # iterations   MaxIter         ....   125
 SCF integral mode      SCFMode         .... Direct
   Integral package                     .... SHARK and LIBINT hybrid scheme
 Reset frequency        DirectResetFreq ....    20
 Integral Threshold     Thresh          ....  2.500e-11 Eh
 Primitive CutOff       TCut            ....  2.500e-12 Eh

Convergence Tolerance:
 Convergence Check Mode ConvCheckMode   .... Total+1el-Energy
 Convergence forced     ConvForced      .... 1
 Energy Change          TolE            ....  1.000e-08 Eh
 1-El. energy change                    ....  1.000e-05 Eh
 Orbital Gradient       TolG            ....  1.000e-05
 Orbital Rotation angle TolX            ....  1.000e-05
 DIIS Error             TolErr          ....  5.000e-07

------------------------------
INITIAL GUESS: MODEL POTENTIAL
------------------------------
Loading Hartree-Fock densities                     ... done
Calculating cut-offs                               ... done
Initializing the effective Hamiltonian             ... done
Setting up the integral package (SHARK)            ... done
Starting the Coulomb interaction                   ... done (   0.0 sec)
Making the grid                                    ... done (   0.0 sec)
Mapping shells                                     ... done
Starting the XC term evaluation                    ... done (   0.0 sec)
Transforming the Hamiltonian                       ... done (   0.0 sec)
Diagonalizing the Hamiltonian                      ... done (   0.0 sec)
Back transforming the eigenvectors                 ... done (   0.0 sec)
Now organizing SCF variables                       ... done
                      ------------------
                      INITIAL GUESS DONE (   0.0 sec)
                      ------------------
             **** ENERGY FILE WAS UPDATED (oh3plus.en.tmp) ****
Finished Guess after   0.0 sec
Maximum memory used throughout the entire GUESS-calculation: 3.6 MB

-------------------------------------------------------------------------------------------
                                      ORCA LEAN-SCF
                              memory conserving SCF solver
-------------------------------------------------------------------------------------------

----------------------------------------D-I-I-S--------------------------------------------
Iteration    Energy (Eh)           Delta-E    RMSDP     MaxDP     DIISErr   Damp  Time(sec)
-------------------------------------------------------------------------------------------
               ***  Starting incremental Fock matrix formation  ***
    1    -76.2552730844177944     0.00e+00  3.79e-03  3.83e-02  1.77e-01  0.700   0.0
    2    -76.2665983293487812    -1.13e-02  2.61e-03  2.69e-02  1.08e-01  0.700   0.0
                               ***Turning on AO-DIIS***
    3    -76.2729817612266174    -6.38e-03  1.25e-03  1.28e-02  6.11e-02  0.700   0.0
    4    -76.2769902124945673    -4.01e-03  2.94e-03  2.86e-02  4.22e-02  0.000   0.0
                              *** Initializing SOSCF ***
---------------------------------------S-O-S-C-F--------------------------------------
Iteration    Energy (Eh)           Delta-E    RMSDP     MaxDP     MaxGrad    Time(sec)
--------------------------------------------------------------------------------------
    5    -76.2859752705363121    -8.99e-03  2.66e-04  2.18e-03  3.14e-03     0.0
               *** Restarting incremental Fock matrix formation ***
    6    -76.2859944771270051    -1.92e-05  6.37e-05  4.72e-04  4.30e-04     0.0
    7    -76.2859958743935351    -1.40e-06  3.37e-05  3.66e-04  2.25e-04     0.0
    8    -76.2859960525894536    -1.78e-07  7.12e-06  5.12e-05  4.21e-05     0.0
    9    -76.2859960615319466    -8.94e-09  1.72e-06  1.61e-05  1.48e-05     0.0
                 **** Energy Check signals convergence ****

               *****************************************************
               *                     SUCCESS                       *
               *           SCF CONVERGED AFTER   9 CYCLES          *
               *****************************************************

             **** ENERGY FILE WAS UPDATED (oh3plus.en.tmp) ****

----------------
TOTAL SCF ENERGY
----------------

Total Energy       :        -76.28599606240024 Eh           -2075.84749 eV

Components:
Nuclear Repulsion  :         13.63490419507679 Eh             371.02461 eV
Electronic Energy  :        -89.92090025747703 Eh           -2446.87209 eV
One Electron Energy:       -128.01840190266350 Eh           -3483.55782 eV
Two Electron Energy:         38.09750164518647 Eh            1036.68572 eV

Virial components:
Potential Energy   :       -152.29133748628760 Eh           -4144.05797 eV
Kinetic Energy     :         76.00534142388736 Eh            2068.21049 eV
Virial Ratio       :          2.00369256467052

---------------
SCF CONVERGENCE
---------------

  Last Energy change         ...    8.9425e-09  Tolerance :   1.0000e-08
  Last MAX-Density change    ...    1.6117e-05  Tolerance :   1.0000e-07
  Last RMS-Density change    ...    1.7186e-06  Tolerance :   5.0000e-09
  Last DIIS Error            ...    3.1396e-03  Tolerance :   5.0000e-07
  Last Orbital Gradient      ...    1.4826e-05  Tolerance :   1.0000e-05
  Last Orbital Rotation      ...    6.5960e-06  Tolerance :   1.0000e-05


----------------
ORBITAL ENERGIES
----------------

  NO   OCC          E(Eh)            E(eV) 
   0   2.0000     -20.991214      -571.2000 
   1   2.0000      -1.769018       -48.1374 
   2   2.0000      -1.155754       -31.4497 
   3   2.0000      -1.077227       -29.3128 
   4   2.0000      -0.918486       -24.9933 
   5   0.0000      -0.127032        -3.4567 
   6   0.0000      -0.015287        -0.4160 
   7   0.0000       0.003318         0.0903 
   8   0.0000       0.534450        14.5431 
   9   0.0000       0.690810        18.7979 
  10   0.0000       0.765720        20.8363 
  11   0.0000       0.778153        21.1746 
  12   0.0000       0.896881        24.4054 
  13   0.0000       0.963459        26.2171 
  14   0.0000       1.287905        35.0457 
  15   0.0000       1.338620        36.4257 
*Only the first 10 virtual orbitals were printed.

                    ********************************
                    * MULLIKEN POPULATION ANALYSIS *
                    ********************************

-----------------------
MULLIKEN ATOMIC CHARGES
-----------------------
   0 O :   -0.539741
   1 H :    0.477355
   2 H :    0.535811
   3 H :    0.526575
Sum of atomic charges:    1.0000000

--------------------------------
MULLIKEN REDUCED ORBITAL CHARGES
--------------------------------
  0 O s       :     3.708386  s :     3.708386
      pz      :     1.868358  p :     4.822826
      px      :     1.520827
      py      :     1.433641
      dz2     :     0.000673  d :     0.008529
      dxz     :     0.001535
      dyz     :     0.000670
      dx2y2   :     0.001659
      dxy     :     0.003992

  1 H s       :     0.481004  s :     0.481004
      pz      :     0.012541  p :     0.041640
      px      :     0.020088
      py      :     0.009011

  2 H s       :     0.422788  s :     0.422788
      pz      :     0.007212  p :     0.041401
      px      :     0.006968
      py      :     0.027221

  3 H s       :     0.429178  s :     0.429178
      pz      :     0.009174  p :     0.044247
      px      :     0.018226
      py      :     0.016848



                     *******************************
                     * LOEWDIN POPULATION ANALYSIS *
                     *******************************

----------------------
LOEWDIN ATOMIC CHARGES
----------------------
   0 O :    0.060582
   1 H :    0.286204
   2 H :    0.337973
   3 H :    0.315241

-------------------------------
LOEWDIN REDUCED ORBITAL CHARGES
-------------------------------
  0 O s       :     3.315278  s :     3.315278
      pz      :     1.816723  p :     4.608435
      px      :     1.447443
      py      :     1.344270
      dz2     :     0.000370  d :     0.015704
      dxz     :     0.002216
      dyz     :     0.001336
      dx2y2   :     0.004250
      dxy     :     0.007531

  1 H s       :     0.598515  s :     0.598515
      pz      :     0.036115  p :     0.115281
      px      :     0.054590
      py      :     0.024576

  2 H s       :     0.550666  s :     0.550666
      pz      :     0.019860  p :     0.111361
      px      :     0.018976
      py      :     0.072525

  3 H s       :     0.563567  s :     0.563567
      pz      :     0.025655  p :     0.121192
      px      :     0.049862
      py      :     0.045675



                      *****************************
                      * MAYER POPULATION ANALYSIS *
                      *****************************

  NA   - Mulliken gross atomic population
  ZA   - Total nuclear charge
  QA   - Mulliken gross atomic charge
  VA   - Mayer's total valence
  BVA  - Mayer's bonded valence
  FA   - Mayer's free valence

  ATOM       NA         ZA         QA         VA         BVA        FA
  0 O      8.5397     8.0000    -0.5397     2.1736     2.1736     0.0000
  1 H      0.5226     1.0000     0.4774     0.7692     0.7692    -0.0000
  2 H      0.4642     1.0000     0.5358     0.7140     0.7140     0.0000
  3 H      0.4734     1.0000     0.5266     0.7253     0.7253    -0.0000

  Mayer bond orders larger than 0.100000
B(  0-O ,  1-H ) :   0.7682 B(  0-O ,  2-H ) :   0.6982 B(  0-O ,  3-H ) :   0.7072 


-------
TIMINGS
-------

Total SCF time: 0 days 0 hours 0 min 0 sec 

Total time                  ....       0.056 sec
Sum of individual times     ....       0.048 sec  ( 85.0%)

SCF preparation             ....       0.012 sec  ( 22.2%)
Fock matrix formation       ....       0.032 sec  ( 56.7%)
  Startup                   ....       0.000 sec  (  0.4% of F)
  Coulomb+Exchange Fock     ....       0.034 sec  (108.0% of F)
Diagonalization             ....       0.000 sec  (  0.0%)
Density matrix formation    ....       0.001 sec  (  1.0%)
Total Energy calculation    ....       0.000 sec  (  0.3%)
Population analysis         ....       0.001 sec  (  1.1%)
Orbital Transformation      ....       0.000 sec  (  0.5%)
Orbital Orthonormalization  ....       0.000 sec  (  0.0%)
DIIS solution               ....       0.001 sec  (  2.0%)
SOSCF solution              ....       0.001 sec  (  1.1%)
Finished LeanSCF after   0.1 sec

Maximum memory used throughout the entire LEANSCF-calculation: 7.1 MB

------------------------------------------------------------------------------
                                ORCA  MP2 
------------------------------------------------------------------------------

Freezing NCore=2 chemical core electrons
MP2 will be done in the AO integral direct mode
The Q1-step will be done using symmetric double matrices
Dimension of the basis                    ...   29
Memory devoted for MP2                    ... 4096 MB   
Memory needed for all in one shot         ...    1 MB
Number of MOs that can be treated together... 42557      
MP2 density construction                  ... relaxed
The MP2 gradient is requested => amplitudes will be stored on disk
Total number of MOs              ...    4
Number of MOs treated per batch  ...    4 
Number of batches necessary      ...    1 
OPERATORS   0/  0 PASS   0
-----------------------------------------------
 MP2 CORRELATION ENERGY   :     -0.196754734 Eh
-----------------------------------------------


---------------------
MP2 DENSITY FORMATION
---------------------

Completing the external part of the density      ... done
Storing the unrelaxed density                    ... done

Calculating G(D)                                 ... done
Completing the Lagrangian                        ... done
Solving the Z-vector equations                   ... 
-------------------
SHARK CP-SCF DRIVER
-------------------

Dimension of the orbital basis          ...     29
Dimension of the CPSCF-problem          ...    120
Number of operators                     ...      1
Max. number of iterations               ...    128
Convergence Tolerance                   ... 1.0e-04
Number of perturbations                 ...      1
Perturbation type                       ... REAL

----------------------------
POPLE LINEAR EQUATION SOLVER
----------------------------

  ITERATION   0:   ||err||_max =   2.0040e-02 (   0.0 sec)
  ITERATION   1:   ||err||_max =   3.3815e-03 (   0.0 sec)
  ITERATION   2:   ||err||_max =   3.9517e-04 (   0.0 sec)
  ITERATION   3:   ||err||_max =   3.6003e-05 (   0.0 sec)
                                                 ... done
Finalizing the relaxed density                   ... done
Transforming P to the AO basis                   ... done
Storing the relaxed density                      ... done

------------------------------------
ENERGY WEIGHTED DENSITY FINALIZATION
------------------------------------

Gathering the parts of the W-matrix              ...                                                      done
Forming the Z-density                            ... done
Transforming Z to the AO basis                   ... done
Calculating G(Z)                                 ... done
Finalizing the W-matrix                          ...                                                      done
Transforming W to the AO basis and storing       ... done

                *********************************************
                * UNRELAXED MP2 DENSITY POPULATION ANALYSIS *
                *********************************************

------------------------------------------------------------------------------
                           ORCA POPULATION ANALYSIS
------------------------------------------------------------------------------
Input electron density              ... oh3plus.pmp2ur
BaseName (.gbw .S,...)              ... oh3plus

                    ********************************
                    * MULLIKEN POPULATION ANALYSIS *
                    ********************************

-----------------------
MULLIKEN ATOMIC CHARGES
-----------------------
   0 O :   -0.533599
   1 H :    0.475107
   2 H :    0.533613
   3 H :    0.524879
Sum of atomic charges:    1.0000000

--------------------------------
MULLIKEN REDUCED ORBITAL CHARGES
--------------------------------
  0 O s       :     3.705174  s :     3.705174
      pz      :     1.858871  p :     4.797932
      px      :     1.512978
      py      :     1.426083
      dz2     :     0.005180  d :     0.030493
      dxz     :     0.005894
      dyz     :     0.005019
      dx2y2   :     0.005979
      dxy     :     0.008421
  1 H s       :     0.482589  s :     0.482589
      pz      :     0.012916  p :     0.042304
      px      :     0.020065
      py      :     0.009323
  2 H s       :     0.424545  s :     0.424545
      pz      :     0.007647  p :     0.041843
      px      :     0.007298
      py      :     0.026897
  3 H s       :     0.430499  s :     0.430499
      pz      :     0.009566  p :     0.044622
      px      :     0.018185
      py      :     0.016872


                     *******************************
                     * LOEWDIN POPULATION ANALYSIS *
                     *******************************

----------------------
LOEWDIN ATOMIC CHARGES
----------------------
   0 O :    0.064341
   1 H :    0.284792
   2 H :    0.336556
   3 H :    0.314310

-------------------------------
LOEWDIN REDUCED ORBITAL CHARGES
-------------------------------
  0 O s       :     3.313448  s :     3.313448
      pz      :     1.807461  p :     4.584462
      px      :     1.439891
      py      :     1.337110
      dz2     :     0.004932  d :     0.037748
      dxz     :     0.006649
      dyz     :     0.005542
      dx2y2   :     0.008487
      dxy     :     0.012138
  1 H s       :     0.598473  s :     0.598473
      pz      :     0.036663  p :     0.116734
      px      :     0.054967
      py      :     0.025104
  2 H s       :     0.551194  s :     0.551194
      pz      :     0.020379  p :     0.112250
      px      :     0.019391
      py      :     0.072480
  3 H s       :     0.563607  s :     0.563607
      pz      :     0.026131  p :     0.122082
      px      :     0.050074
      py      :     0.045877


                      *****************************
                      * MAYER POPULATION ANALYSIS *
                      *****************************

  NA   - Mulliken gross atomic population
  ZA   - Total nuclear charge
  QA   - Mulliken gross atomic charge
  VA   - Mayer's total valence
  BVA  - Mayer's bonded valence
  FA   - Mayer's free valence

  ATOM       NA         ZA         QA         VA         BVA        FA
  0 O      8.5336     8.0000    -0.5336     2.4052     2.0987     0.3065
  1 H      0.5249     1.0000     0.4751     0.7735     0.7409     0.0326
  2 H      0.4664     1.0000     0.5336     0.7179     0.6890     0.0289
  3 H      0.4751     1.0000     0.5249     0.7286     0.7012     0.0275

  Mayer bond orders larger than 0.100000
B(  0-O ,  1-H ) :   0.7402 B(  0-O ,  2-H ) :   0.6743 B(  0-O ,  3-H ) :   0.6842 



                *******************************************
                * RELAXED MP2 DENSITY POPULATION ANALYSIS *
                *******************************************

------------------------------------------------------------------------------
                           ORCA POPULATION ANALYSIS
------------------------------------------------------------------------------
Input electron density              ... oh3plus.pmp2re
BaseName (.gbw .S,...)              ... oh3plus

                    ********************************
                    * MULLIKEN POPULATION ANALYSIS *
                    ********************************

-----------------------
MULLIKEN ATOMIC CHARGES
-----------------------
   0 O :   -0.489650
   1 H :    0.462511
   2 H :    0.516811
   3 H :    0.510328
Sum of atomic charges:    1.0000000

--------------------------------
MULLIKEN REDUCED ORBITAL CHARGES
--------------------------------
  0 O s       :     3.691024  s :     3.691024
      pz      :     1.855447  p :     4.768804
      px      :     1.502222
      py      :     1.411135
      dz2     :     0.005293  d :     0.029821
      dxz     :     0.005812
      dyz     :     0.004936
      dx2y2   :     0.005698
      dxy     :     0.008082
  1 H s       :     0.497129  s :     0.497129
      pz      :     0.012739  p :     0.040360
      px      :     0.018531
      py      :     0.009090
  2 H s       :     0.443279  s :     0.443279
      pz      :     0.007974  p :     0.039910
      px      :     0.007140
      py      :     0.024796
  3 H s       :     0.447203  s :     0.447203
      pz      :     0.009768  p :     0.042469
      px      :     0.017147
      py      :     0.015554


                     *******************************
                     * LOEWDIN POPULATION ANALYSIS *
                     *******************************

----------------------
LOEWDIN ATOMIC CHARGES
----------------------
   0 O :    0.078600
   1 H :    0.281231
   2 H :    0.330575
   3 H :    0.309594

-------------------------------
LOEWDIN REDUCED ORBITAL CHARGES
-------------------------------
  0 O s       :     3.308030  s :     3.308030
      pz      :     1.805391  p :     4.575850
      px      :     1.437154
      py      :     1.333305
      dz2     :     0.004999  d :     0.037519
      dxz     :     0.006604
      dyz     :     0.005502
      dx2y2   :     0.008381
      dxy     :     0.012033
  1 H s       :     0.604605  s :     0.604605
      pz      :     0.036555  p :     0.114164
      px      :     0.053071
      py      :     0.024538
  2 H s       :     0.560161  s :     0.560161
      pz      :     0.020804  p :     0.109264
      px      :     0.018977
      py      :     0.069483
  3 H s       :     0.571304  s :     0.571304
      pz      :     0.026423  p :     0.119102
      px      :     0.048641
      py      :     0.044038


                      *****************************
                      * MAYER POPULATION ANALYSIS *
                      *****************************

  NA   - Mulliken gross atomic population
  ZA   - Total nuclear charge
  QA   - Mulliken gross atomic charge
  VA   - Mayer's total valence
  BVA  - Mayer's bonded valence
  FA   - Mayer's free valence

  ATOM       NA         ZA         QA         VA         BVA        FA
  0 O      8.4896     8.0000    -0.4896     2.4488     2.1443     0.3045
  1 H      0.5375     1.0000     0.4625     0.7852     0.7525     0.0327
  2 H      0.4832     1.0000     0.5168     0.7361     0.7071     0.0290
  3 H      0.4897     1.0000     0.5103     0.7444     0.7168     0.0275

  Mayer bond orders larger than 0.100000
B(  0-O ,  1-H ) :   0.7521 B(  0-O ,  2-H ) :   0.6924 B(  0-O ,  3-H ) :   0.6998 



----------------------------------
MP2 DERIVATIVE INTEGRAL GENERATION
----------------------------------

Input SCF Electron Density              ... oh3plus.scfp
Input Correlated Electron Density       ... oh3plus.pmp2re
Input Energy Weighted Density           ... oh3plus.wmp2.tmp
Input Wavefunction Amplitudes           ... oh3plus.mp2tsaa.tmp

Nuclear repulsion gradient              ... done (  0.0 sec)
HCore & Overlap gradient  (SHARK)       ... done (  0.0 sec)
Analytic two-electron gradient terms    ... 
  Batch handling in the gradient evaluation:
  General contraction                   ... not used
  Memory available                      ... 4094.5 MB
  Memory per occupied orbital in Q2     ...    0.0 MB
  Memory per occupied orbital in Q3     ...    0.0 MB
  Total memory requirement per |i>      ...    0.0 MB
  Number of orbitals treated per batch  ...      4
  Number of batches to be done          ...      1
done (  0.0 sec)

---------------------------------------
MP2 TOTAL ENERGY:      -76.482750796 Eh
---------------------------------------

The final MP2 gradient
  0:  -0.06162574  -0.00124233  -0.02832111
  1:   0.01452140   0.00556440   0.00643997
  2:   0.04221228   0.02497706   0.01551306
  3:   0.00489206  -0.02929914   0.00636808

-----------------------------------
NORM OF THE MP2 GRADIENT:  0.091946
-----------------------------------

Maximum memory used throughout the entire MP2-calculation: 13.2 MB

-------------------------   --------------------
FINAL SINGLE POINT ENERGY       -76.482750795976
-------------------------   --------------------

------------------------------------------------------------------------------
                         ORCA GEOMETRY RELAXATION STEP
------------------------------------------------------------------------------

Reading the OPT-File                    .... done
Getting information on internals        .... done
Copying old internal coords+grads       .... done
Making the new internal coordinates     .... (2022 redundants) done
Validating the new internal coordinates .... (2022 redundants) done
Calculating the B-matrix                .... done
Calculating the G,G- and P matrices     .... done
Transforming gradient to internals      .... done
Projecting the internal gradient        .... done
Number of atoms                         ....   4
Number of internal coordinates          ....   7
Current Energy                          ....   -76.482750796 Eh
Current gradient norm                   ....     0.091945514 Eh/bohr
Maximum allowed component of the step   ....  0.300
Current trust radius                    ....  0.300
Evaluating the initial hessian          ....  (Almloef) done
Projecting the Hessian                  .... done
Diagonalizing the Hessian               .... done
Dimension of the hessian                ....   7
Lowest eigenvalues of the Hessian:
  0.029848756  0.305034557  0.308433245  0.418532934  0.463989835
Hessian has   0 negative eigenvalues
Taking P-RFO step
Searching for lambda that maximizes along the lowest mode
TS mode is mode number   0 with eigenvalue   0.02984876 and components:
   1.    0.00000000
   2.    0.00000000
   3.   -0.00000000
   4.    0.01100007
   5.    0.01118426
   6.    0.01120209
   7.    0.99981419

Lambda that maximizes along the TS mode:       0.02984885
Searching for lambda that minimizes along all other modes
In cycle   1: lambdaN =  -0.01220780   step =   0.01220780
In cycle   2: lambdaN =  -0.01222394   step =   0.00001614
In cycle   3: lambdaN =  -0.01222394   step =   0.00000000
Lambda that minimizes along all other modes:  -0.01222394
Calculated stepsize too large (   0.6069 >    0.3000). Scaled with    0.4943.
The final length of the internal step   ....       0.3000
Converting the step to Cartesian space:
 Initial RMS(Int)=    0.1133893419
Transforming coordinates:
 Iter   0:  RMS(Cart)=    0.0202164248 RMS(Int)=    0.0608120884
 Iter   5:  RMS(Cart)=    0.0000000277 RMS(Int)=    0.0000000592
done
Storing new coordinates                 .... done

                                .--------------------.
          ----------------------|Geometry convergence|-------------------------
          Item                value                   Tolerance       Converged
          ---------------------------------------------------------------------
          RMS gradient        0.0248654628            0.0001000000      NO
          MAX gradient        0.0406192113            0.0003000000      NO
          RMS step            0.1133893419            0.0020000000      NO
          MAX step            0.1482988714            0.0040000000      NO
          -------------------------------------------------------------------------
          ........................................................
          Max(Bonds)      0.0214      Max(Angles)    8.50
          Max(Dihed)        0.00      Max(Improp)    8.50
          ---------------------------------------------------------------------

The optimization has not yet converged - more geometry cycles are needed


    ---------------------------------------------------------------------------
                         Redundant Internal Coordinates
                            (Angstroem and degrees)

        Definition                    Value    dE/dq     Step     New-Value  comp.(TS mode)
    ----------------------------------------------------------------------------
     1. B(H   1,O   0)                0.9910  0.011876 -0.0065    0.9845   
     2. B(H   2,O   0)                1.0191  0.035318 -0.0214    0.9976   
     3. B(H   3,O   0)                0.9910  0.014771 -0.0081    0.9829   
     4. A(H   1,O   0,H   3)          111.43 -0.009110    8.50    119.93   
     5. A(H   2,O   0,H   3)          146.61  0.040619    8.50    155.11   
     6. A(H   1,O   0,H   2)          101.90 -0.031441    8.50    110.40   
     7. I(H   1,H   3,H   2,O   0)     -3.17  0.000051    8.50      5.33          1.00
    ----------------------------------------------------------------------------

Geometry step timings:
Preparation and reading OPT file:      0.000 s ( 4.140 %)
Internal coordinates            :      0.000 s ( 3.822 %)
B/P matrices and projection     :      0.000 s (23.567 %)
Hessian update/contruction      :      0.000 s (20.382 %)
Making the step                 :      0.000 s (21.019 %)
Converting the step to Cartesian:      0.000 s ( 4.777 %)
Storing new data                :      0.000 s ( 3.503 %)
Checking convergence            :      0.000 s ( 6.688 %)
Final printing                  :      0.000 s (11.465 %)
Total time                      :      0.000 s

Time for energy+gradient        :      0.289 s
Time for complete geometry iter :      0.298 s

         *************************************************************
         *                GEOMETRY OPTIMIZATION CYCLE   2            *
         *************************************************************
---------------------------------
CARTESIAN COORDINATES (ANGSTROEM)
---------------------------------
  O      1.361954    2.322955    0.162980
  H      2.144224    1.895447    0.580682
  H      1.649778    3.277048    0.117083
  H      0.676627    1.660374   -0.076558

----------------------------
CARTESIAN COORDINATES (A.U.)
----------------------------
  NO LB      ZA    FRAG     MASS         X           Y           Z
   0 O     8.0000    0    15.999    2.573721    4.389749    0.307988
   1 H     1.0000    0     1.008    4.051996    3.581875    1.097331
   2 H     1.0000    0     1.008    3.117629    6.192724    0.221255
   3 H     1.0000    0     1.008    1.278640    3.137652   -0.144675

--------------------------------
INTERNAL COORDINATES (ANGSTROEM)
--------------------------------
 O      0   0   0     0.000000000000     0.00000000     0.00000000
 H      1   0   0     0.984471773765     0.00000000     0.00000000
 H      1   2   0     0.997618838526   101.86301111     0.00000000
 H      1   2   3     0.982886270109   111.39006661   176.60896424

---------------------------
INTERNAL COORDINATES (A.U.)
---------------------------
 O      0   0   0     0.000000000000     0.00000000     0.00000000
 H      1   0   0     1.860382038991     0.00000000     0.00000000
 H      1   2   0     1.885226390854   101.86301111     0.00000000
 H      1   2   3     1.857385871298   111.39006661   176.60896424

------------------------------------------------------------------------------
                   ___                                                        
                  /   \      - P O W E R E D   B Y -                         
                 /     \                                                     
                 |  |  |   _    _      __       _____    __    __             
                 |  |  |  | |  | |    /  \     |  _  \  |  |  /  |          
                  \  \/   | |  | |   /    \    | | | |  |  | /  /          
                 / \  \   | |__| |  /  /\  \   | |_| |  |  |/  /          
                |  |  |   |  __  | /  /__\  \  |    /   |      \           
                |  |  |   | |  | | |   __   |  |    \   |  |\   \          
                \     /   | |  | | |  |  |  |  | |\  \  |  | \   \       
                 \___/    |_|  |_| |__|  |__|  |_| \__\ |__|  \__/        
                                                                              
                      - O R C A' S   B I G   F R I E N D -                    
                                      &                                       
                       - I N T E G R A L  F E E D E R -                       
                                                                              
 v1 FN, 2020, v2 2021, v3 2022-2024                                           
------------------------------------------------------------------------------


----------------------
SHARK INTEGRAL PACKAGE
----------------------

Number of atoms                             ...      4
Number of basis functions                   ...     29
Number of shells                            ...     15
Maximum angular momentum                    ...      2
Integral batch strategy                     ... SHARK/LIBINT Hybrid
RI-J (if used) integral strategy            ... SPLIT-RIJ (Revised 2003 algorithm where possible)
Printlevel                                  ...      1
Contraction scheme used                     ... SEGMENTED contraction
Prescreening option                         ... SCHWARTZ
   Thresh                                   ... 2.500e-11
   Tcut                                     ... 2.500e-12
   Tpresel                                  ... 2.500e-12 
Coulomb Range Separation                    ... NOT USED
Exchange Range Separation                   ... NOT USED
Multipole approximations                    ... NOT USED
Finite Nucleus Model                        ... NOT USED
CABS basis                                  ... NOT available
Auxiliary Coulomb fitting basis             ... NOT available
Auxiliary J/K fitting basis                 ... NOT available
Auxiliary Correlation fitting basis         ... NOT available
Auxiliary 'external' fitting basis          ... NOT available

Checking pre-screening integrals            ... done (  0.0 sec) Dimension = 15
   => SHARK Basis and OBASIS are compatible. Storing Pre-screening
Shell pair information
Shell pair cut-off parameter TPreSel        ...   2.5e-12
Total number of shell pairs                 ...       120
Shell pairs after pre-screening             ...       120
Total number of primitive shell pairs       ...       495
Primitive shell pairs kept                  ...       469
          la=0 lb=0:     45 shell pairs
          la=1 lb=0:     45 shell pairs
          la=1 lb=1:     15 shell pairs
          la=2 lb=0:      9 shell pairs
          la=2 lb=1:      5 shell pairs
          la=2 lb=2:      1 shell pairs

Checking whether 4 symmetric matrices of dimension 29 fit in memory
:Max Core in MB      =   4096.00
 MB in use           =      1.33
 MB left             =   4094.67
 MB needed           =      0.01
 Data fit in memory  = YES
Calculating Nuclear repulsion               ... done (  0.0 sec) ENN=     13.799301992705 Eh

Diagonalization of the overlap matrix:
Smallest eigenvalue                        ... 4.019e-02
Time for diagonalization                   ...    0.000 sec
Threshold for overlap eigenvalues          ... 1.000e-07
Number of eigenvalues below threshold      ... 0
Time for construction of square roots      ...    0.000 sec
Total time needed                          ...    0.000 sec

-------------------
DFT GRID GENERATION
-------------------

General Integration Accuracy     IntAcc      ... 4.388
Radial Grid Type                 RadialGrid  ... OptM3 with GC (2021)
Angular Grid (max. ang.)         AngularGrid ... 4 (Lebedev-302)
Angular grid pruning method      GridPruning ... 4 (adaptive)
Weight generation scheme         WeightScheme... mBecke (2022)
Basis function cutoff            BFCut       ... 1.0000e-11
Integration weight cutoff        WCut        ... 1.0000e-14
Partially contracted basis set               ... off
Rotationally invariant grid construction     ... off
Angular grids for H and He will be reduced by one unit

Total number of grid points                  ...    16015
Total number of batches                      ...      252
Average number of points per batch           ...       63
Average number of grid points per atom       ...     4004
Grids setup in   0.0 sec
Initializing property integral containers    ... done (  0.0 sec)

SHARK setup successfully completed in   0.1 seconds

Maximum memory used throughout the entire STARTUP-calculation: 7.7 MB
Occupation numbers will be reassigned to an Aufbau configuration
             **** ENERGY FILE WAS UPDATED (oh3plus.en.tmp) ****
Finished Guess after   0.0 sec
Maximum memory used throughout the entire GUESS-calculation: 3.6 MB
----------------------------------------D-I-I-S--------------------------------------------
Iteration    Energy (Eh)           Delta-E    RMSDP     MaxDP     DIISErr   Damp  Time(sec)
-------------------------------------------------------------------------------------------
               ***  Starting incremental Fock matrix formation  ***
    1    -76.2878157720614638     0.00e+00  4.23e-04  2.62e-03  9.21e-03  0.700   0.0
    2    -76.2879539644587226    -1.38e-04  3.55e-04  2.29e-03  7.62e-03  0.700   0.0
                               ***Turning on AO-DIIS***
    3    -76.2880632967724637    -1.09e-04  3.16e-04  2.16e-03  6.17e-03  0.700   0.0
    4    -76.2881479843858870    -8.47e-05  8.57e-04  6.10e-03  4.72e-03  0.000   0.0
                              *** Initializing SOSCF ***
---------------------------------------S-O-S-C-F--------------------------------------
Iteration    Energy (Eh)           Delta-E    RMSDP     MaxDP     MaxGrad    Time(sec)
--------------------------------------------------------------------------------------
    5    -76.2883957476824719    -2.48e-04  1.10e-04  8.98e-04  7.94e-04     0.0
               *** Restarting incremental Fock matrix formation ***
    6    -76.2883993428416858    -3.60e-06  6.23e-05  5.87e-04  4.40e-04     0.0
    7    -76.2884001410620840    -7.98e-07  5.09e-05  4.67e-04  1.90e-04     0.0
    8    -76.2884003371123782    -1.96e-07  6.12e-06  6.02e-05  3.95e-05     0.0
    9    -76.2884003435715243    -6.46e-09  1.64e-06  1.29e-05  1.19e-05     0.0
                 **** Energy Check signals convergence ****

               *****************************************************
               *                     SUCCESS                       *
               *           SCF CONVERGED AFTER   9 CYCLES          *
               *****************************************************

             **** ENERGY FILE WAS UPDATED (oh3plus.en.tmp) ****

----------------
TOTAL SCF ENERGY
----------------

Total Energy       :        -76.28840034421783 Eh           -2075.91291 eV

Components:
Nuclear Repulsion  :         13.79930199270527 Eh             375.49810 eV
Electronic Energy  :        -90.08770233692310 Eh           -2451.41101 eV
One Electron Energy:       -128.28080832854346 Eh           -3490.69826 eV
Two Electron Energy:         38.19310599162036 Eh            1039.28725 eV

Virial components:
Potential Energy   :       -152.34966262120378 Eh           -4145.64508 eV
Kinetic Energy     :         76.06126227698596 Eh            2069.73217 eV
Virial Ratio       :          2.00298625161393

---------------
SCF CONVERGENCE
---------------

  Last Energy change         ...    6.4591e-09  Tolerance :   1.0000e-08
  Last MAX-Density change    ...    1.2903e-05  Tolerance :   1.0000e-07
  Last RMS-Density change    ...    1.6416e-06  Tolerance :   5.0000e-09
  Last DIIS Error            ...    7.9383e-04  Tolerance :   5.0000e-07
  Last Orbital Gradient      ...    1.1940e-05  Tolerance :   1.0000e-05
  Last Orbital Rotation      ...    8.0008e-06  Tolerance :   1.0000e-05


Total SCF time: 0 days 0 hours 0 min 0 sec 
Finished LeanSCF after   0.1 sec

Maximum memory used throughout the entire LEANSCF-calculation: 7.2 MB

------------------------------------------------------------------------------
                                ORCA  MP2 
------------------------------------------------------------------------------

Freezing NCore=2 chemical core electrons
MP2 will be done in the AO integral direct mode
The Q1-step will be done using symmetric double matrices
Dimension of the basis                    ...   29
Memory devoted for MP2                    ... 4096 MB   
Memory needed for all in one shot         ...    1 MB
Number of MOs that can be treated together... 42557      
MP2 density construction                  ... relaxed
The MP2 gradient is requested => amplitudes will be stored on disk
Total number of MOs              ...    4
Number of MOs treated per batch  ...    4 
Number of batches necessary      ...    1 
OPERATORS   0/  0 PASS   0
-----------------------------------------------
 MP2 CORRELATION ENERGY   :     -0.195728709 Eh
-----------------------------------------------


---------------------
MP2 DENSITY FORMATION
---------------------

Completing the external part of the density      ... done
Storing the unrelaxed density                    ... done

Calculating G(D)                                 ... done
Completing the Lagrangian                        ... done
Solving the Z-vector equations                   ... 
-------------------
SHARK CP-SCF DRIVER
-------------------

Dimension of the orbital basis          ...     29
Dimension of the CPSCF-problem          ...    120
Number of operators                     ...      1
Max. number of iterations               ...    128
Convergence Tolerance                   ... 1.0e-04
Number of perturbations                 ...      1
Perturbation type                       ... REAL

----------------------------
POPLE LINEAR EQUATION SOLVER
----------------------------

  ITERATION   0:   ||err||_max =   1.9646e-02 (   0.0 sec)
  ITERATION   1:   ||err||_max =   3.3041e-03 (   0.0 sec)
  ITERATION   2:   ||err||_max =   3.8617e-04 (   0.0 sec)
  ITERATION   3:   ||err||_max =   3.4638e-05 (   0.0 sec)
                                                 ... done
Finalizing the relaxed density                   ... done
Transforming P to the AO basis                   ... done
Storing the relaxed density                      ... done

------------------------------------
ENERGY WEIGHTED DENSITY FINALIZATION
------------------------------------

Gathering the parts of the W-matrix              ...                                                      done
Forming the Z-density                            ... done
Transforming Z to the AO basis                   ... done
Calculating G(Z)                                 ... done
Finalizing the W-matrix                          ...                                                      done
Transforming W to the AO basis and storing       ... done

----------------------------------
MP2 DERIVATIVE INTEGRAL GENERATION
----------------------------------

Input SCF Electron Density              ... oh3plus.scfp
Input Correlated Electron Density       ... oh3plus.pmp2re
Input Energy Weighted Density           ... oh3plus.wmp2.tmp
Input Wavefunction Amplitudes           ... oh3plus.mp2tsaa.tmp

Nuclear repulsion gradient              ... done (  0.0 sec)
HCore & Overlap gradient  (SHARK)       ... done (  0.0 sec)
Analytic two-electron gradient terms    ... 
  Batch handling in the gradient evaluation:
  General contraction                   ... not used
  Memory available                      ... 4094.4 MB
  Memory per occupied orbital in Q2     ...    0.0 MB
  Memory per occupied orbital in Q3     ...    0.0 MB
  Total memory requirement per |i>      ...    0.0 MB
  Number of orbitals treated per batch  ...      4
  Number of batches to be done          ...      1
done (  0.0 sec)

---------------------------------------
MP2 TOTAL ENERGY:      -76.484129054 Eh
---------------------------------------

The final MP2 gradient
  0:  -0.05815504   0.00735176  -0.03028453
  1:   0.01033274   0.00836400   0.00268983
  2:   0.03841432   0.00892622   0.01757911
  3:   0.00940799  -0.02464199   0.01001560

-----------------------------------
NORM OF THE MP2 GRADIENT:  0.084839
-----------------------------------

Maximum memory used throughout the entire MP2-calculation: 13.2 MB

-------------------------   --------------------
FINAL SINGLE POINT ENERGY       -76.484129053668
-------------------------   --------------------

------------------------------------------------------------------------------
                         ORCA GEOMETRY RELAXATION STEP
------------------------------------------------------------------------------

Reading the OPT-File                    .... done
Getting information on internals        .... done
Copying old internal coords+grads       .... done
Making the new internal coordinates     .... (2022 redundants) done
Validating the new internal coordinates .... (2022 redundants) done
Calculating the B-matrix                .... done
Calculating the G,G- and P matrices     .... done
Transforming gradient to internals      .... done
Projecting the internal gradient        .... done
Number of atoms                         ....   4
Number of internal coordinates          ....   7
Current Energy                          ....   -76.484129054 Eh
Current gradient norm                   ....     0.084838553 Eh/bohr
Maximum allowed component of the step   ....  0.300
Current trust radius                    ....  0.300
Updating the Hessian (Bofill)           .... done
Diagonalizing the Hessian               .... done
Dimension of the hessian                ....   7
Lowest eigenvalues of the Hessian:
  0.000070092  0.305116690  0.308434277  0.418904352  0.463938065
WARNING! Eigenvalue   1 too small, replaced by  0.000100000
Hessian has   0 negative eigenvalues
Taking P-RFO step
Searching for lambda that maximizes along the lowest mode
TS mode is mode number   0 with eigenvalue   0.00010000 and components:
   1.    0.00533250
   2.   -0.00773823
   3.    0.00018708
   4.   -0.00208493
   5.   -0.01573505
   6.    0.00849128
   7.    0.99979378

Lambda that maximizes along the TS mode:       0.00108397
Searching for lambda that minimizes along all other modes
In cycle   1: lambdaN =  -0.00996529   step =   0.00996529
In cycle   2: lambdaN =  -0.00997512   step =   0.00000983
In cycle   3: lambdaN =  -0.00997512   step =   0.00000000
Lambda that minimizes along all other modes:  -0.00997512
Calculated stepsize too large (   0.3386 >    0.3000). Scaled with    0.8860.
The final length of the internal step   ....       0.3000
Converting the step to Cartesian space:
 Initial RMS(Int)=    0.1133893419
Transforming coordinates:
 Iter   0:  RMS(Cart)=    0.0424436327 RMS(Int)=    0.1044123492
 Iter   5:  RMS(Cart)=    0.0000010885 RMS(Int)=    0.0000018769
done
Storing new coordinates                 .... done
The predicted energy change is          ....     0.001676335
Previously predicted energy change      ....    32.245524613
Actually observed energy change         ....    -0.001378258
Ratio of predicted to observed change   ....     0.000042743
New trust radius                        ....     0.200000000

                                .--------------------.
          ----------------------|Geometry convergence|-------------------------
          Item                value                   Tolerance       Converged
          ---------------------------------------------------------------------
          Energy change      -0.0013782577            0.0000050000      NO
          RMS gradient        0.0215898826            0.0001000000      NO
          MAX gradient        0.0413596283            0.0003000000      NO
          RMS step            0.1133893419            0.0020000000      NO
          MAX step            0.2658115128            0.0040000000      NO
          -------------------------------------------------------------------------
          ........................................................
          Max(Bonds)      0.0170      Max(Angles)    5.83
          Max(Dihed)        0.00      Max(Improp)   15.23
          ---------------------------------------------------------------------

The optimization has not yet converged - more geometry cycles are needed


    ---------------------------------------------------------------------------
                         Redundant Internal Coordinates
                            (Angstroem and degrees)

        Definition                    Value    dE/dq     Step     New-Value  comp.(TS mode)
    ----------------------------------------------------------------------------
     1. B(H   1,O   0)                0.9845  0.005720 -0.0083    0.9762   
     2. B(H   2,O   0)                0.9976  0.018811 -0.0170    0.9806   
     3. B(H   3,O   0)                0.9829  0.007611 -0.0077    0.9752   
     4. A(H   1,O   0,H   3)          111.39 -0.009145    1.57    112.96   
     5. A(H   2,O   0,H   3)          146.58  0.041360   -5.83    140.75   
     6. A(H   1,O   0,H   2)          101.86 -0.032002    4.72    106.58   
     7. I(H   1,H   3,H   2,O   0)      5.62 -0.000016  -15.23     -9.61          1.00
    ----------------------------------------------------------------------------

Geometry step timings:
Preparation and reading OPT file:      0.000 s ( 3.367 %)
Internal coordinates            :      0.000 s ( 5.387 %)
B/P matrices and projection     :      0.000 s (17.172 %)
Hessian update/contruction      :      0.000 s (20.875 %)
Making the step                 :      0.000 s (21.212 %)
Converting the step to Cartesian:      0.000 s ( 5.051 %)
Storing new data                :      0.000 s ( 3.367 %)
Checking convergence            :      0.000 s ( 9.764 %)
Final printing                  :      0.000 s (13.468 %)
Total time                      :      0.000 s

Time for energy+gradient        :      0.261 s
Time for complete geometry iter :      0.270 s

         *************************************************************
         *                GEOMETRY OPTIMIZATION CYCLE   3            *
         *************************************************************
---------------------------------
CARTESIAN COORDINATES (ANGSTROEM)
---------------------------------
  O      1.403951    2.311155    0.132323
  H      2.146306    1.879536    0.596556
  H      1.608637    3.270102    0.118291
  H      0.673690    1.695031   -0.062983

----------------------------
CARTESIAN COORDINATES (A.U.)
----------------------------
  NO LB      ZA    FRAG     MASS         X           Y           Z
   0 O     8.0000    0    15.999    2.653083    4.367450    0.250054
   1 H     1.0000    0     1.008    4.055931    3.551808    1.127328
   2 H     1.0000    0     1.008    3.039883    6.179598    0.223537
   3 H     1.0000    0     1.008    1.273090    3.203144   -0.119021

--------------------------------
INTERNAL COORDINATES (ANGSTROEM)
--------------------------------
 O      0   0   0     0.000000000000     0.00000000     0.00000000
 H      1   0   0     0.976165518526     0.00000000     0.00000000
 H      1   2   0     0.980649528464   106.28685651     0.00000000
 H      1   2   3     0.975209592184   112.66610930   186.90561791

---------------------------
INTERNAL COORDINATES (A.U.)
---------------------------
 O      0   0   0     0.000000000000     0.00000000     0.00000000
 H      1   0   0     1.844685491391     0.00000000     0.00000000
 H      1   2   0     1.853159042155   106.28685651     0.00000000
 H      1   2   3     1.842879052401   112.66610930   186.90561791

------------------------------------------------------------------------------
                   ___                                                        
                  /   \      - P O W E R E D   B Y -                         
                 /     \                                                     
                 |  |  |   _    _      __       _____    __    __             
                 |  |  |  | |  | |    /  \     |  _  \  |  |  /  |          
                  \  \/   | |  | |   /    \    | | | |  |  | /  /          
                 / \  \   | |__| |  /  /\  \   | |_| |  |  |/  /          
                |  |  |   |  __  | /  /__\  \  |    /   |      \           
                |  |  |   | |  | | |   __   |  |    \   |  |\   \          
                \     /   | |  | | |  |  |  |  | |\  \  |  | \   \       
                 \___/    |_|  |_| |__|  |__|  |_| \__\ |__|  \__/        
                                                                              
                      - O R C A' S   B I G   F R I E N D -                    
                                      &                                       
                       - I N T E G R A L  F E E D E R -                       
                                                                              
 v1 FN, 2020, v2 2021, v3 2022-2024                                           
------------------------------------------------------------------------------


----------------------
SHARK INTEGRAL PACKAGE
----------------------

Number of atoms                             ...      4
Number of basis functions                   ...     29
Number of shells                            ...     15
Maximum angular momentum                    ...      2
Integral batch strategy                     ... SHARK/LIBINT Hybrid
RI-J (if used) integral strategy            ... SPLIT-RIJ (Revised 2003 algorithm where possible)
Printlevel                                  ...      1
Contraction scheme used                     ... SEGMENTED contraction
Prescreening option                         ... SCHWARTZ
   Thresh                                   ... 2.500e-11
   Tcut                                     ... 2.500e-12
   Tpresel                                  ... 2.500e-12 
Coulomb Range Separation                    ... NOT USED
Exchange Range Separation                   ... NOT USED
[...]

Number of atoms                ... 4
Central differences            ... used
Translation invariance         ... used
Number of displacements        ... 24 - 6
Numerical increment            ... 5.000e-03 bohr
IR-spectrum generation         ... on
Raman-spectrum generation      ... off
Surface Crossing Hessian       ... off

The output will be reduced. Please look at the following files:
SCF program output             ... >oh3plus.lastscf
Integral program output        ... >oh3plus.lastint
Gradient program output        ... >oh3plus.lastgrad
Dipole moment program output   ... >oh3plus.lastmom

	<< Calculating gradient on displaced geometry   1 (of  18) >>
	<< Calculating gradient on displaced geometry   2 (of  18) >>
	<< Calculating gradient on displaced geometry   3 (of  18) >>
	<< Calculating gradient on displaced geometry   4 (of  18) >>
	<< Calculating gradient on displaced geometry   5 (of  18) >>
	<< Calculating gradient on displaced geometry   6 (of  18) >>
	<< Calculating gradient on displaced geometry   7 (of  18) >>
	<< Calculating gradient on displaced geometry   8 (of  18) >>
	<< Calculating gradient on displaced geometry   9 (of  18) >>
	<< Calculating gradient on displaced geometry  10 (of  18) >>
	<< Calculating gradient on displaced geometry  11 (of  18) >>
	<< Calculating gradient on displaced geometry  12 (of  18) >>
	<< Calculating gradient on displaced geometry  13 (of  18) >>
	<< Calculating gradient on displaced geometry  14 (of  18) >>
	<< Calculating gradient on displaced geometry  15 (of  18) >>
	<< Calculating gradient on displaced geometry  16 (of  18) >>
	<< Calculating gradient on displaced geometry  17 (of  18) >>
	<< Calculating gradient on displaced geometry  18 (of  18) >>

-----------------------
VIBRATIONAL FREQUENCIES
-----------------------

Scaling factor for frequencies =  1.000000000  (already applied!)

     0:       0.00 cm**-1
     1:       0.00 cm**-1
     2:       0.00 cm**-1
     3:       0.00 cm**-1
     4:       0.00 cm**-1
     5:       0.00 cm**-1
     6:    -646.33 cm**-1  ***imaginary mode***
     7:    1656.31 cm**-1
     8:    1656.85 cm**-1
     9:    3701.70 cm**-1
    10:    3881.46 cm**-1
    11:    3883.14 cm**-1


------------
NORMAL MODES
------------

These modes are the Cartesian displacements weighted by the diagonal matrix
M(i,i)=1/sqrt(m[i]) where m[i] is the mass of the displaced atom
Thus, these vectors are normalized but *not* orthogonal

                  0          1          2          3          4          5    
      0       0.000000   0.000000   0.000000   0.000000   0.000000   0.000000
      1       0.000000   0.000000   0.000000   0.000000   0.000000   0.000000
      2       0.000000   0.000000   0.000000   0.000000   0.000000   0.000000
      3       0.000000   0.000000   0.000000   0.000000   0.000000   0.000000
      4       0.000000   0.000000   0.000000   0.000000   0.000000   0.000000
      5       0.000000   0.000000   0.000000   0.000000   0.000000   0.000000
      6       0.000000   0.000000   0.000000   0.000000   0.000000   0.000000
      7       0.000000   0.000000   0.000000   0.000000   0.000000   0.000000
      8       0.000000   0.000000   0.000000   0.000000   0.000000   0.000000
      9       0.000000   0.000000   0.000000   0.000000   0.000000   0.000000
     10       0.000000   0.000000   0.000000   0.000000   0.000000   0.000000
     11       0.000000   0.000000   0.000000   0.000000   0.000000   0.000000
                  6          7          8          9         10         11    
      0      -0.044773  -0.058730  -0.023187  -0.000325  -0.055820  -0.043400
      1       0.015313  -0.029297   0.062053   0.000292   0.043177  -0.063580
      2       0.097617  -0.022329  -0.020395  -0.000537  -0.032358  -0.009954
      3       0.238191   0.291857  -0.282359   0.445568   0.614712   0.057105
      4      -0.082061   0.592152  -0.376050  -0.281988  -0.389796  -0.027473
      5      -0.515708   0.042615  -0.068133   0.250396   0.346095   0.030805
      6       0.236986   0.669388   0.309868   0.026024  -0.015594   0.033788
      7      -0.078908  -0.021602   0.073836   0.568293  -0.466651   0.660681
      8      -0.516774   0.311481   0.128224  -0.075299   0.064109  -0.085409
      9       0.235463  -0.029078   0.340514  -0.466433   0.286852   0.597961
     10      -0.082084  -0.105549  -0.682686  -0.290934   0.171146   0.375927
     11      -0.516898   0.000309   0.263615  -0.166572   0.103385   0.212591


-----------
IR SPECTRUM
-----------

 Mode   freq       eps      Int      T**2         TX        TY        TZ
       cm**-1   L/(mol*cm) km/mol    a.u.
----------------------------------------------------------------------------
  7:   1656.31   0.043136  217.99  0.008127  ( 0.069822  0.051559  0.024368)
  8:   1656.85   0.028269  142.86  0.005324  (-0.037134  0.057212 -0.025927)
  9:   3701.70   0.063941  323.13  0.005390  ( 0.059827  0.036552  0.021796)
 10:   3881.46   0.106352  537.46  0.008551  ( 0.039908 -0.077607  0.030578)
 11:   3883.14   0.023592  119.22  0.001896  (-0.013607  0.039573 -0.012031)

* The epsilon (eps) is given for a Dirac delta lineshape.
** The dipole moment derivative (T) already includes vibrational overlap.

The first frequency considered to be a vibration is 7
The total number of vibrations considered is 5


--------------------------
THERMOCHEMISTRY AT 298.15K
--------------------------

Temperature         ...   298.15 K
Pressure            ...     1.00 atm
Total Mass          ...    19.02 AMU
Quasi RRHO          ...     True
Cut-Off Frequency   ...     1.00 cm^-1

Throughout the following assumptions are being made:
  (1) The electronic state is orbitally nondegenerate
  (2) There are no thermally accessible electronically excited states
  (3) Hindered rotations indicated by low frequency modes are not
      treated as such but are treated as vibrations and this may
      cause some error
  (4) All equations used are the standard statistical mechanics
      equations for an ideal gas
  (5) All vibrations are strictly harmonic

freq.    1656.31  E(vib)   ...       0.00 
freq.    1656.85  E(vib)   ...       0.00 
freq.    3701.70  E(vib)   ...       0.00 
freq.    3881.46  E(vib)   ...       0.00 
freq.    3883.14  E(vib)   ...       0.00 

------------
INNER ENERGY
------------

The inner energy is: U= E(el) + E(ZPE) + E(vib) + E(rot) + E(trans)
    E(el)   - is the total energy from the electronic structure calculation
              = E(kin-el) + E(nuc-el) + E(el-el) + E(nuc-nuc)
    E(ZPE)  - the the zero temperature vibrational energy from the frequency calculation
    E(vib)  - the the finite temperature correction to E(ZPE) due to population
              of excited vibrational states
    E(rot)  - is the rotational thermal energy
    E(trans)- is the translational thermal energy

Summary of contributions to the inner energy U:
Electronic energy                ...    -76.50115711 Eh
Zero point energy                ...      0.03367008 Eh      21.13 kcal/mol
Thermal vibrational correction   ...      0.00000510 Eh       0.00 kcal/mol
Thermal rotational correction    ...      0.00141627 Eh       0.89 kcal/mol
Thermal translational correction ...      0.00141627 Eh       0.89 kcal/mol
-----------------------------------------------------------------------
Total thermal energy                    -76.46464940 Eh


Summary of corrections to the electronic energy:
(perhaps to be used in another calculation)
Total thermal correction                  0.00283764 Eh       1.78 kcal/mol
Non-thermal (ZPE) correction              0.03367008 Eh      21.13 kcal/mol
-----------------------------------------------------------------------
Total correction                          0.03650772 Eh      22.91 kcal/mol


--------
ENTHALPY
--------

The enthalpy is H = U + kB*T
                kB is Boltzmann's constant
Total thermal energy              ...    -76.46464940 Eh 
Thermal Enthalpy correction       ...      0.00094421 Eh       0.59 kcal/mol
-----------------------------------------------------------------------
Total Enthalpy                    ...    -76.46370519 Eh


Note: Only C1 symmetry has been detected, increase convergence thresholds 
      if your molecule has a higher symmetry. Symmetry factor of 1.0 is   
      used for the rotational entropy correction. 
 

Note: Rotational entropy computed according to Herzberg 
Infrared and Raman Spectra, Chapter V,1, Van Nostrand Reinhold, 1945 
Point Group:  C1, Symmetry Number:   1  
Rotational constants in cm-1:    11.779995    11.774824     5.888821 

Vibrational entropy computed according to the QRRHO of S. Grimme
Chem.Eur.J. 2012 18 9955 using a reference frequency of 100.0 cm-1


-------
ENTROPY
-------

The entropy contributions are T*S = T*(S(el)+S(vib)+S(rot)+S(trans))
     S(el)   - electronic entropy
     S(vib)  - vibrational entropy
     S(rot)  - rotational entropy
     S(trans)- translational entropy
The entropies will be listed as multiplied by the temperature to get
units of energy

Electronic entropy                ...      0.00000000 Eh      0.00 kcal/mol
Vibrational entropy               ...      0.00000573 Eh      0.00 kcal/mol
Rotational entropy                ...      0.00634524 Eh      3.98 kcal/mol
Translational entropy             ...      0.01652091 Eh     10.37 kcal/mol
-----------------------------------------------------------------------
Final entropy term                ...      0.02287189 Eh     14.35 kcal/mol

In case the symmetry of your molecule has not been determined correctly
or in case you have a reason to use a different symmetry number we print 
out the resulting rotational entropy values for sn=1,12:

 non-linear molecules -----------------------------------
|  sn= 1 | S(rot)=       0.00634524 Eh      3.98 kcal/mol|
|  sn= 2 | S(rot)=       0.00569079 Eh      3.57 kcal/mol|
|  sn= 3 | S(rot)=       0.00530796 Eh      3.33 kcal/mol|
|  sn= 4 | S(rot)=       0.00503633 Eh      3.16 kcal/mol|
|  sn= 5 | S(rot)=       0.00482564 Eh      3.03 kcal/mol|
|  sn= 6 | S(rot)=       0.00465350 Eh      2.92 kcal/mol|
|  sn= 7 | S(rot)=       0.00450795 Eh      2.83 kcal/mol|
|  sn= 8 | S(rot)=       0.00438188 Eh      2.75 kcal/mol|
|  sn= 9 | S(rot)=       0.00427067 Eh      2.68 kcal/mol|
|  sn=10 | S(rot)=       0.00417119 Eh      2.62 kcal/mol|
|  sn=11 | S(rot)=       0.00408120 Eh      2.56 kcal/mol|
|  sn=12 | S(rot)=       0.00399904 Eh      2.51 kcal/mol|
 linear molecules ---------------------------------------
|  Dinfh | S(rot)=       0.00365172 Eh      2.29 kcal/mol|
|  Cinfv | S(rot)=       0.00430618 Eh      2.70 kcal/mol|
 --------------------------------------------------------


-------------------
GIBBS FREE ENERGY
-------------------

The Gibbs free energy is G = H - T*S

Total enthalpy                    ...    -76.46370519 Eh 
Total entropy correction          ...     -0.02287189 Eh    -14.35 kcal/mol
-----------------------------------------------------------------------
Final Gibbs free energy         ...    -76.48657708 Eh

For completeness - the Gibbs free energy minus the electronic energy
G-E(el)                           ...      0.01458004 Eh      9.15 kcal/mol





--------------------------------------------------------------------------------
                   Intrinsic Reaction Coordinate Calculation
--------------------------------------------------------------------------------

System:
Nr. of atoms                        .... 4
Algorithm: SD (steepest descent step) plus correction
Settings:
Max. no of cycles        MaxIter    .... 20
Direction                           .... Forward and backward
Initial displacement Hessian type   .... Read
Hessian Filename                    .... oh3plus.hess
Following Hessian mode              .... 0
Initial displacement type           .... Energy
  Initial displacement energy change.... 2.000 mEh
Coordinate system following type    .... Cartesian
Length of steepest descent step     .... 0.150 bohr
Do parabolic fit 
  if SD step is uphill              .... YES
Do Correction to SD step            .... YES
Scaling for length of correction
  compared to SD step               .... 0.333
Do parabolic fit to SD correction   .... YES
Only interpolate for parabolic fit  .... YES
Do update to length of
  SD step and correction            .... YES
Convergence Tolerances:
  Max. Gradient            TolMAXG  ....  2.0000e-03 Eh/bohr
  RMS Gradient             TolRMSG  ....  5.0000e-04 Eh/bohr
Storing full IRC trajectory in      .... oh3plus_IRC_Full_trj.xyz
Storing forward trajectory in       .... oh3plus_IRC_F_trj.xyz
Storing backward trajectory in      .... oh3plus_IRC_B_trj.xyz


 ...good, the file oh3plus.hess exists
Reading the hessian file           ...... done
Determining length of initial displacement:
  Requested energy change (quadratic behavior): 2.000 mEh
  Resulting scaling factor for initial displacement along normalized TS mode: 0.4622

         *************************************************************
         *                          FORWARD IRC                      *
         *************************************************************

Iteration    E(Eh)      dE(kcal/mol)  max(|G|)   RMS(G) 
Convergence thresholds                0.002000  0.000500            
    0       -76.502402   -0.781421    0.011034  0.005729
    1       -76.502811   -1.037610    0.005556  0.003351
    2       -76.503278   -1.330619    0.004497  0.002072
    3       -76.503637   -1.556082    0.001961  0.001178
    4       -76.503679   -1.582572    0.001488  0.000891
    5       -76.503695   -1.592810    0.001784  0.000766
    6       -76.503703   -1.597392    0.001099  0.000560
    7       -76.503715   -1.605077    0.000869  0.000341

                      ***********************HURRAY********************
                      ***            THE IRC HAS CONVERGED          ***
                      *************************************************


         *************************************************************
         *                          BACKWARD IRC                     *
         *************************************************************

Iteration    E(Eh)      dE(kcal/mol)  max(|G|)   RMS(G) 
Convergence thresholds                0.002000  0.000500            
    0       -76.502307   -0.721610    0.011333  0.005744
    1       -76.502723   -0.982629    0.006028  0.003376
    2       -76.503210   -1.288261    0.005962  0.002137
    3       -76.503608   -1.538178    0.002063  0.001254
    4       -76.503676   -1.580843    0.001947  0.001018
    5       -76.503692   -1.590515    0.001632  0.000763
    6       -76.503701   -1.596591    0.001202  0.000586
    7       -76.503714   -1.604459    0.000924  0.000358

                      ***********************HURRAY********************
                      ***            THE IRC HAS CONVERGED          ***
                      *************************************************


---------------------------------------------------------------
                       IRC PATH SUMMARY              
---------------------------------------------------------------
All gradients are in Eh/Bohr.

Step        E(Eh)      dE(kcal/mol)  max(|G|)   RMS(G) 
   1       -76.503714   -1.604459    0.000924  0.000358
   2       -76.503701   -1.596591    0.001202  0.000586
   3       -76.503692   -1.590515    0.001632  0.000763
   4       -76.503676   -1.580843    0.001947  0.001018
   5       -76.503608   -1.538178    0.002063  0.001254
   6       -76.503210   -1.288261    0.005962  0.002137
   7       -76.502723   -0.982629    0.006028  0.003376
   8       -76.502307   -0.721610    0.011333  0.005744
   9       -76.501157    0.000000    0.000185  0.000096 <= TS
  10       -76.502402   -0.781421    0.011034  0.005729
  11       -76.502811   -1.037610    0.005556  0.003351
  12       -76.503278   -1.330619    0.004497  0.002072
  13       -76.503637   -1.556082    0.001961  0.001178
  14       -76.503679   -1.582572    0.001488  0.000891
  15       -76.503695   -1.592810    0.001784  0.000766
  16       -76.503703   -1.597392    0.001099  0.000560
  17       -76.503715   -1.605077    0.000869  0.000341

--------------------------------
SUGGESTED CITATIONS FOR THIS RUN
--------------------------------

Below you find a list of papers that are relevant to this ORCA run
We neither can nor want to force you to cite these papers, but we appreciate if you do
You receive ORCA, which is the product of decades of hard work by many enthusiastic individuals, for free
The only thing we kindly ask in return is that you cite our papers,
We deeply appreciate it, if you show your appreciation for ORCA by not just citing the generic ORCA reference.

Please note that relegating all ORCA citations to the supporting information does *not* help us.
SI sections are not indexed - citations you put there will not count into any citation statistics
But we need these citations in order to attract the funding resources that allow us to do what we are doing

Therefore, if you are a happy ORCA user, please consider citing a few of the papers listed below in the main body of your paper

In addition to the list printed below, the program has created the file oh3plus.bibtex that contains the list in bibtex format
You can import this file easily into all common literature databanks and citation aid programs


List of essential papers. We consider these as the minimum necessary citations

  1. Neese, F.
     Software update: the ORCA program system, version 6.0
     WIRES Comput. Molec. Sci. 2025 15(1), e70019
     doi.org/10.1002/wcms.7019

List of papers to cite with high priority. The work reported in these papers was absolutely
necessary for this run to complete.
Our perspective: the developers of density functionals and basis sets usually get cited in chemistry papers
Good! But without the algorithms to do something with them, the functionals or basis sets would not do anything.
Hence, in our opinion, the algorithm design and method developments papers are equally worthy of getting cited

  1. Neese, F.
     The SHARK Integral Generation and Digestion System
     J. Comp. Chem. 2022 44(3), 381
     doi.org/10.1002/jcc.26942

List of suggested additional citations. These are papers that are important in the 'surrounding' of 
of this run, or papers that preceded the highly important papers. If you like your results we are grateful for a citation.

  1. Neese, F.
     The ORCA program system
     WIRES Comput. Molec. Sci. 2012 2(1), 73-78
     doi.org/10.1002/wcms.81
  2. Neese, F.
     Software update: the ORCA program system, version 4.0
     WIRES Comput. Molec. Sci. 2018 8(1), 1-6
     doi.org/10.1002/wcms.1327
  3. Neese, F.; Wennmohs, F.; Becker, U.; Riplinger, C.
     The ORCA quantum chemistry program package
     J. Chem. Phys. 2020 152(22), 224108
     doi.org/10.1063/5.0004608
  4. Neese, F.
     Software update: The ORCA program system—Version 5.0
     WIRES Comput. Molec. Sci. 2022 12(1), e1606
     doi.org/10.1002/wcms.1606

List of optional additional citations

  1. Neese, F.
     Approximate second-order SCF convergence for spin unrestricted wavefunctions
     Chem. Phys. Lett. 2000 325(1-3), 93-98
     doi.org/10.1016/s0009-2614(00)00662-x

Timings for individual modules:

Sum of individual times          ...       39.179 sec (=   0.653 min)
Startup calculation              ...        6.642 sec (=   0.111 min)  17.0 %
SCF iterations                   ...        9.109 sec (=   0.152 min)  23.2 %
Property calculations            ...        0.038 sec (=   0.001 min)   0.1 %
MP2 module                       ...       12.597 sec (=   0.210 min)  32.2 %
Geometry relaxation              ...        0.019 sec (=   0.000 min)   0.0 %
Numerical frequency calculation  ...       10.775 sec (=   0.180 min)  27.5 %
                             ****ORCA TERMINATED NORMALLY****
TOTAL RUN TIME: 0 days 0 hours 0 minutes 39 seconds 897 msec
