
                                 *****************
                                 * O   R   C   A *
                                 *****************

                                            #,                                       
                                            ###                                      
                                            ####                                     
                                            #####                                    
                                            ######                                   
                                           ########,                                 
                                     ,,################,,,,,                         
                               ,,#################################,,                 
                          ,,##########################################,,             
                       ,#########################################, ''#####,          
                    ,#############################################,,   '####,        
                  ,##################################################,,,,####,       
                ,###########''''           ''''###############################       
              ,#####''   ,,,,##########,,,,          '''####'''          '####       
            ,##' ,,,,###########################,,,                        '##       
           ' ,,###''''                  '''############,,,                           
         ,,##''                                '''############,,,,        ,,,,,,###''
      ,#''                                            '''#######################'''  
     '                                                          ''''####''''         
             ,#######,   #######,   ,#######,      ##                                
            ,#'     '#,  ##    ##  ,#'     '#,    #''#        ,####,    ,#,          
            ##       ##  ##   ,#'  ##            #'  '#       #'       ,# #          
            ##       ##  #######   ##           ,######,      #####,      #          
            '#,     ,#'  ##    ##  '#,     ,#' ,#      #,     #,   #      #          
             '#######'   ##     ##  '#######'  #'      '#     '####' #    #          



                #########################################################
                #                        -***-                          #
                #          Department of theory and spectroscopy        #
                #                                                       #
                #                      Frank Neese                      #
                #                                                       #
                #     Directorship, Architecture, Infrastructure        #
                #                    SHARK, DRIVERS                     #
                #        Core code/Algorithms in most modules           #
                #                                                       #
                #        Max Planck Institute fuer Kohlenforschung      #
                #                Kaiser Wilhelm Platz 1                 #
                #                 D-45470 Muelheim/Ruhr                 #
                #                      Germany                          #
                #                                                       #
                #                  All rights reserved                  #
                #                        -***-                          #
                #########################################################


                         Program Version 6.1.0  -  RELEASE   -
                                (GIT: $679e74b$)
                          ($2025-06-10 18:02:51 +0200$)


 With contributions from (in alphabetic order):
[Max-Planck-Institut fuer Kohlenforschung]                               
  Daniel Aravena         : Magnetic Suceptibility                        
  Michael Atanasov       : Ab Initio Ligand Field Theory (pilot matlab implementation)
  Alexander A. Auer      : GIAO ZORA, VPT2 properties, NMR spectrum      
  Ute Becker             : All parallelization in ORCA, NUMFREQ, NUMCALC 
  Giovanni Bistoni       : ED, misc. LED, open-shell LED, HFLD           
  Dmytro Bykov           : pre 5.0 version of the SCF Hessian            
  Marcos Casanova-Páez   : Triplet and SCS-CIS(D). UHF-(DLPNO)-IP/EA/STEOM-CCSD. UHF-CVS-IP/STEOM-CCSD   
  Vijay G. Chilkuri      : MRCI spin determinant printing, contributions to CSF-ICE 
  Pauline Colinet        : FMM embedding                                 
  Dipayan Datta          : RHF DLPNO-CCSD density                        
  Achintya Kumar Dutta   : EOM-CC, STEOM-CC                              
  Nicolas Foglia         : Exact transition moments, OPA infrastructure, MCD improvements    
  Dmitry Ganyushin       : Spin-Orbit,Spin-Spin,Magnetic field MRCI      
  Miquel Garcia-Rates    : C-PCM and meta-GGA Hessian, CCSD/C-PCM, Gaussian charge scheme 
  Tiago L. C. Gouveia    : GS-ROHF, GS-ROCIS                             
  Yang Guo               : DLPNO-NEVPT2, F12-NEVPT2, CIM, IAO-localization        
  Andreas Hansen         : Spin unrestricted coupled pair/coupled cluster methods 
  Ingolf Harden          : AUTO-CI MPn and infrastructure                
  Benjamin Helmich-Paris : MC-RPA, TRAH-(SCF,CASSCF), AVAS, COSX integrals, SCF dyn. polar., MC-PDFT, srDFT 
  Lee Huntington         : MR-EOM, pCC                                   
  Robert Izsak           : Overlap fitted RIJCOSX, COSX-SCS-MP3, EOM     
  Riya Kayal             : Wick's Theorem for AUTO-CI, AUTO-CI UHF-CCSDT 
  Emily Kempfer          : AUTO-CI RHF CISDT and CCSDT, approximate NEVPT4
  Christian Kollmar      : KDIIS, OOCD, Brueckner-CCSD(T), CCSD density, CASPT2, CASPT2-K, improved NEVPT2 
  Axel Koslowski         : Symmetry handling                             
  Simone Kossmann        : meta-GGA functionals, TD-DFT gradient, OOMP2, (MP2 Hessian; deprecated post 5.0) 
  Lucas Lang             : DCDCAS, Hyperfine gauge corrections, ICE-SOC+SSC
  Marvin Lechner         : AUTO-CI (C++ implementation), FIC-MRCC        
  Spencer Leger          : CASSCF response                               
  Dagmar Lenk            : GEPOL surface, SMD, ORCA-2-JSON               
  Dimitrios Liakos       : Extrapolation schemes; Compound Job, Property file
  Dimitrios Manganas     : Further ROCIS development; embedding schemes. LFT, Crystal Embedding 
  Dimitrios Pantazis     : SARC Basis sets                               
  Anastasios Papadopoulos: AUTO-CI, single reference methods and gradients 
  Taras Petrenko         : pre 6.0 DFT Hessian and TD-DFT gradient,  ECA, NRVS 
  Petra Pikulova         : Analytic Raman intensities                    
  Peter Pinski           : DLPNO-MP2, DLPNO-MP2 Gradient                 
  Shashank Vittal Rao    : ES-AILFT, MagRelax                            
  Christoph Reimann      : Effective Core Potentials                     
  Marius Retegan         : Local ZFS, SOC                                
  Christoph Riplinger    : Optimizer, TS searches, QM/MM, DLPNO-CCSD(T), (RO)-DLPNO pert. Triples 
  Michael Roemelt        : Original ROCIS implementation, recursive CI coupling coefficients
  Masaaki Saitow         : Open-shell DLPNO-CCSD energy and density      
  Barbara Sandhoefer     : DKH picture change effects                    
  Yorick L. A. Schmerwitz: GMF and freeze-and-release deltaSCF, NEB S-IDPP initial path                    
  Kantharuban Sivalingam : CASSCF convergence/infrastructure, NEVPT2, NEVPT3, NEVPT4(SD), FIC-MRCI and CEPA variants
  Bernardo de Souza      : ESD, SOC TD-DFT                               
  Georgi L. Stoychev     : AutoAux, RI-MP2 NMR, DLPNO-MP2 response, X2C  
  Van Anh Tran           : RI-MP2 g-tensors                              
  Willem Van den Heuvel  : Paramagnetic NMR                              
  Zikuan Wang            : NOTCH, Electric field optimization            
  Frank Wennmohs         : Technical directorship and infrastructure     
  Hang Xu                : AUTO-CI-Response properties                   
                                                                         
[FACCTs GmbH]                                                            
  Markus Bursch, Nicolas Foglia, Miquel Garcia-Rates, Ingolf Harden, Hagen Neugebauer, Anastasios Papadopoulos, 
  Christoph Riplinger, Bernardo de Souza, Georgi L. Stoychev                                                    
                                                                 
  APM, various basis sets, CI-OPT, improved COSX, DLPNO-Multilevel,           
  DOCKER, DRACO, updates on ESD, Fragmentator, GOAT, IRC, LR-CPCM, L-BFGS, MBIS, meta-GGA TD-DFT gradient, ML-optimized integration grids, 
  MM, NACMEs, nearIR, NEB, NEB-TS, NL-DFT gradient (VV10), 2- and 3-layer-ONIOM, interface openCOSMO-RS, QMMM,   
  Crystal-QMMM, RESP, rigid body optimization, SF, symmetry and pop. for TD-DFT, various functionals, SOLVATOR                                   
                                                                         
[Other institutions]                                                     
  V. Asgeirsson          : NEB                                           
  Christoph Bannwarth    : sTDA-DFT, sTD-DFT, PBEh-3c, B97-3c, D3        
  Giovanni Bistoni       : ETS/NOCV, ADLD/ADEX, COVALED                  
  Martin Brehm           : Molecular dynamics                            
  Ronald Cardenas        : ETS/NOCV                                      
  Martina Colucci        : COVALED                                       
  Sebastian Ehlert       : rSCAN, r2SCAN, r2SCAN-3c, D4, dhf basis sets  
  Marvin Friede          : D4 for Fr, Ra, Ac-Lr                          
  Lars Goerigk           : TD-DFT with DH, B97 family of functionals     
  Stefan Grimme          : VdW corrections, initial TS optimization, DFT functionals, gCP, sTDA/sTD-DF 
  Waldemar Hujo          : DFT-NL                                        
  H. Jonsson             : NEB                                           
  Holger Kruse           : gCP                                           
  Marcel Mueller         : wB97X-3c, vDZP basis set                      
  Hagen Neugebauer       : wr2SCAN, Native XTB                           
  Gianluca Regni         : ADLD/ADEX                                     
  Tobias Risthaus        : pre 6.0 range-separated hybrid DFT and stability analysis
  Lukas Wittmann         : regularized MP2, r2SCAN double-hybrids, wr2SCAN        
                                                                         
We gratefully acknowledge several colleagues who have allowed us to      
interface, adapt or use parts of their codes:                            
  Ed Valeev, F. Pavosevic, A. Kumar             : LibInt (2-el integral package), F12 methods 
  Garnet Chan, S. Sharma, J. Yang, R. Olivares  : DMRG                   
  Ulf Ekstrom                                   : XCFun DFT Library      
  Mihaly Kallay                                 : mrcc  (arbitrary order and MRCC methods)
  Frank Weinhold                                : gennbo (NPA and NBO analysis)           
  Simon Mueller                                 : openCOSMO-RS                            
  Christopher J. Cramer and Donald G. Truhlar   : smd solvation model                     
  S Lehtola, MJT Oliveira, MAL Marques          : LibXC Library                           
  Liviu Ungur et al                             : ANISO software                          


 Your calculation uses the libint2 library for the computation of 2-el integrals
 For citations please refer to: http://libint.valeyev.net

 Your ORCA version has been built with support for libXC version: 7.0.0
 For citations please refer to: https://libxc.gitlab.io

 This ORCA versions uses:
   CBLAS   interface :  Fast vector & matrix operations
   LAPACKE interface :  Fast linear algebra routines
   SCALAPACK package :  Parallel linear algebra routines
   Shared memory     :  Shared parallel matrices
   BLAS/LAPACK       :  OpenBLAS 0.3.29  USE64BITINT DYNAMIC_ARCH NO_AFFINITY Haswell SINGLE_THREADED
        Core in use  :  Haswell
   Copyright (c) 2011-2014, The OpenBLAS Project


  ***********************************
  * Starting time: Tue Aug 19 14:45:49 2025
  * Host name:     CHEMLAB02
  * Process ID:    3943922
  * Working dir.:  /home/vivek/mm/lab5
  ***********************************



***************************************
The coordinates will be read from file: /home/vivek/mm/lab5/6-311/hf/dimer/dimer-input-coordinates.xyz
***************************************


================================================================================

----- Orbital basis set information -----
Your calculation utilizes the basis: 6-311G**
   H, Li - Ne  : R. Krishnan, J. S. Binkley, R. Seeger and J. A. Pople, J. Chem. Phys. 72, 650 (1980).
   Na - Ar     : A. D. McLean and G. S. Chandler J. Chem. Phys. 72, 5639, (1980).
   K  - Ca     : J.-P. Blaudeau, M. P. McGrath, L. A. Curtiss and L. Radom, J. Chem. Phys. 107, 5016 (1997).
   Ga - Kr     : L. A. Curtiss, M. P. McGrath, J.-P. Blandeau, N. E. Davis, R. C. Binning and L. Radom, J. Chem. Phys. 103, 6104 (1995).
   Pol./Diff.
   H, Li - Cl  : T. Clark, J. Chandrasekhar and P. v. R. Schleyer, J. Comp. Chem. 4, 294 (1983).
   H - Ne      : M. J. Frisch, J. A. Pople and J. S. Binkley, J. Chem. Phys. 80, 3265 (1984).

================================================================================
                                        WARNINGS
                       Please study these warnings very carefully!
================================================================================


WARNING: The frozen-core approximation for MP2-gradient calculations is turned on by default.

WARNING: Geometry Optimization
  ===> : Switching off AutoStart
         For restart on a previous wavefunction, please use MOREAD

WARNING: Post HF methods need fully converged wavefunctions
  ===> : Setting SCFConvForced true
         You can overwrite this default with %scf ConvForced false 


================================================================================
                                       INPUT FILE
================================================================================
NAME = /home/vivek/mm/lab5/6-311/hf/dimer/dimer.inp
|  1> ! MP2 6-311G** opt numfreq
|  2> 
|  3> * xyzfile 0 1 /home/vivek/mm/lab5/6-311/hf/dimer/dimer-input-coordinates.xyz
|  4> 
|  5>                          ****END OF INPUT****
================================================================================

                       *****************************
                       * Geometry Optimization Run *
                       *****************************

Geometry optimization settings:
Update method            Update   .... BFGS
Choice of coordinates    CoordSys .... (2022) Redundant Internals
Initial Hessian          InHess   .... Almloef's Model
Max. no of cycles        MaxIter  .... 50

Convergence Tolerances:
Energy Change            TolE     ....  5.0000e-06 Eh
Max. Gradient            TolMAXG  ....  3.0000e-04 Eh/bohr
RMS Gradient             TolRMSG  ....  1.0000e-04 Eh/bohr
Max. Displacement        TolMAXD  ....  4.0000e-03 bohr
RMS Displacement         TolRMSD  ....  2.0000e-03 bohr
Strict Convergence                .... False

------------------------------------------------------------------------------
                        ORCA OPTIMIZATION COORDINATE SETUP
------------------------------------------------------------------------------

The optimization will be done in redundant internal coordinates (2022)
Making redundant internal coordinates   ...  (2022 redundants) done
Evaluating the initial hessian          ...  (Almloef) done
Evaluating the coordinates              ...  done
Calculating the B-matrix                .... done
Calculating the G-matrix                .... done
The number of degrees of freedom        ....    6

    -----------------------------------------------------------------
                    Redundant Internal Coordinates


    -----------------------------------------------------------------
         Definition                    Initial Value    Approx d2E/dq
    -----------------------------------------------------------------
      1. B(H   1,F   0)                  0.9392         0.521506   
      2. B(H   2,F   0)                  1.5747         0.050501   
      3. B(F   3,H   2)                  0.9392         0.521503   
      4. A(H   1,F   0,H   2)          161.6151         0.224265   
      5. A(F   0,H   2,F   3)          159.8093         0.224265   
      6. D(F   3,H   2,F   0,H   1)    175.2890         0.010000   
    -----------------------------------------------------------------

Number of atoms                         .... 4
Number of degrees of freedom            .... 6


         *************************************************************
         *                GEOMETRY OPTIMIZATION CYCLE   1            *
         *************************************************************
---------------------------------
CARTESIAN COORDINATES (ANGSTROEM)
---------------------------------
  F     -1.446491    2.408914    0.108757
  H     -0.601952    2.312918    0.508277
  H     -3.007413    2.473446   -0.089047
  F     -3.838349    2.600489   -0.507957

----------------------------
CARTESIAN COORDINATES (A.U.)
----------------------------
  NO LB      ZA    FRAG     MASS         X           Y           Z
   0 F     9.0000    0    18.998   -2.733472    4.552188    0.205521
   1 H     1.0000    0     1.008   -1.137524    4.370782    0.960504
   2 H     1.0000    0     1.008   -5.683187    4.674136   -0.168274
   3 F     9.0000    0    18.998   -7.253428    4.914212   -0.959900

--------------------------------
INTERNAL COORDINATES (ANGSTROEM)
--------------------------------
 F      0   0   0     0.000000000000     0.00000000     0.00000000
 H      1   0   0     0.939189855640     0.00000000     0.00000000
 H      1   2   0     1.574728005569   161.61512375     0.00000000
 F      3   1   2     0.939191220170   159.80931378   175.28898559

---------------------------
INTERNAL COORDINATES (A.U.)
---------------------------
 F      0   0   0     0.000000000000     0.00000000     0.00000000
 H      1   0   0     1.774811614917     0.00000000     0.00000000
 H      1   2   0     2.975804665942   161.61512375     0.00000000
 F      3   1   2     1.774814193505   159.80931378   175.28898559

---------------------
BASIS SET INFORMATION
---------------------
There are 2 groups of distinct atoms

 Group   1 Type F   : 11s5p1d contracted to 4s3p1d pattern {6311/311/1}
 Group   2 Type H   : 5s1p contracted to 3s1p pattern {311/1}

Atom   0F    basis set group =>   1
Atom   1H    basis set group =>   2
Atom   2H    basis set group =>   2
Atom   3F    basis set group =>   1
------------------------------------------------------------------------------
                             ORCA STARTUP CALCULATIONS
------------------------------------------------------------------------------
------------------------------------------------------------------------------
                   ___                                                        
                  /   \      - P O W E R E D   B Y -                         
                 /     \                                                     
                 |  |  |   _    _      __       _____    __    __             
                 |  |  |  | |  | |    /  \     |  _  \  |  |  /  |          
                  \  \/   | |  | |   /    \    | | | |  |  | /  /          
                 / \  \   | |__| |  /  /\  \   | |_| |  |  |/  /          
                |  |  |   |  __  | /  /__\  \  |    /   |      \           
                |  |  |   | |  | | |   __   |  |    \   |  |\   \          
                \     /   | |  | | |  |  |  |  | |\  \  |  | \   \       
                 \___/    |_|  |_| |__|  |__|  |_| \__\ |__|  \__/        
                                                                              
                      - O R C A' S   B I G   F R I E N D -                    
                                      &                                       
                       - I N T E G R A L  F E E D E R -                       
                                                                              
 v1 FN, 2020, v2 2021, v3 2022-2024                                           
------------------------------------------------------------------------------


----------------------
SHARK INTEGRAL PACKAGE
----------------------

Number of atoms                             ...      4
Number of basis functions                   ...     48
Number of shells                            ...     24
Maximum angular momentum                    ...      2
Integral batch strategy                     ... SHARK/LIBINT Hybrid
RI-J (if used) integral strategy            ... SPLIT-RIJ (Revised 2003 algorithm where possible)
Printlevel                                  ...      1
Contraction scheme used                     ... SEGMENTED contraction
Prescreening option                         ... SCHWARTZ
   Thresh                                   ... 2.500e-11
   Tcut                                     ... 2.500e-12
   Tpresel                                  ... 2.500e-12 
Coulomb Range Separation                    ... NOT USED
Exchange Range Separation                   ... NOT USED
Multipole approximations                    ... NOT USED
Finite Nucleus Model                        ... NOT USED
CABS basis                                  ... NOT available
Auxiliary Coulomb fitting basis             ... NOT available
Auxiliary J/K fitting basis                 ... NOT available
Auxiliary Correlation fitting basis         ... NOT available
Auxiliary 'external' fitting basis          ... NOT available

Checking pre-screening integrals            ... done (  0.0 sec) Dimension = 24
   => SHARK Basis and OBASIS are compatible. Storing Pre-screening
Shell pair information
Shell pair cut-off parameter TPreSel        ...   2.5e-12
Total number of shell pairs                 ...       300
Shell pairs after pre-screening             ...       285
Total number of primitive shell pairs       ...      1129
Primitive shell pairs kept                  ...       878
          la=0 lb=0:     99 shell pairs
          la=1 lb=0:    106 shell pairs
          la=1 lb=1:     35 shell pairs
          la=2 lb=0:     26 shell pairs
          la=2 lb=1:     16 shell pairs
          la=2 lb=2:      3 shell pairs

Checking whether 4 symmetric matrices of dimension 48 fit in memory
:Max Core in MB      =   4096.00
 MB in use           =      1.54
 MB left             =   4094.46
 MB needed           =      0.04
 Data fit in memory  = YES
Calculating Nuclear repulsion               ... done (  0.0 sec) ENN=     32.079362092664 Eh

Diagonalization of the overlap matrix:
Smallest eigenvalue                        ... 2.103e-02
Time for diagonalization                   ...    0.000 sec
Threshold for overlap eigenvalues          ... 1.000e-07
Number of eigenvalues below threshold      ... 0
Time for construction of square roots      ...    0.000 sec
Total time needed                          ...    0.001 sec

-------------------
DFT GRID GENERATION
-------------------

General Integration Accuracy     IntAcc      ... 4.388
Radial Grid Type                 RadialGrid  ... OptM3 with GC (2021)
Angular Grid (max. ang.)         AngularGrid ... 4 (Lebedev-302)
Angular grid pruning method      GridPruning ... 4 (adaptive)
Weight generation scheme         WeightScheme... mBecke (2022)
Basis function cutoff            BFCut       ... 1.0000e-11
Integration weight cutoff        WCut        ... 1.0000e-14
Partially contracted basis set               ... off
Rotationally invariant grid construction     ... off
Angular grids for H and He will be reduced by one unit

Total number of grid points                  ...    18886
Total number of batches                      ...      296
Average number of points per batch           ...       63
Average number of grid points per atom       ...     4722
Grids setup in   0.2 sec
Initializing property integral containers    ... done (  0.0 sec)

SHARK setup successfully completed in   0.3 seconds

Maximum memory used throughout the entire STARTUP-calculation: 7.7 MB
-------------------------------------------------------------------------------
                                 ORCA GUESS
                   Start orbitals & Density for SCF / CASSCF
-------------------------------------------------------------------------------

------------
SCF SETTINGS
------------
Hamiltonian:
 Ab initio Hamiltonian  Method          .... Hartree-Fock(GTOs)


General Settings:
 Integral files         IntName         .... /home/vivek/mm/lab5/6-311/hf/dimer/dimer
 Hartree-Fock type      HFTyp           .... RHF
 Total Charge           Charge          ....    0
 Multiplicity           Mult            ....    1
 Number of Electrons    NEL             ....   20
 Basis Dimension        Dim             ....   48
 Nuclear Repulsion      ENuc            ....     32.0793620927 Eh

Convergence Acceleration:
 AO-DIIS                CNVDIIS         .... on
   Start iteration      DIISMaxIt       ....    12
   Startup error        DIISStart       ....  0.200000
   # of expansion vecs  DIISMaxEq       ....     5
   Bias factor          DIISBfac        ....   1.050
   Max. coefficient     DIISMaxC        ....  10.000
 MO-DIIS                CNVKDIIS        .... off
 Trust-Rad. Augm. Hess. CNVTRAH         .... auto
   Auto Start mean grad. ratio tolernc. ....  1.125000
   Auto Start start iteration           ....    50
   Auto Start num. interpolation iter.  ....    10
   Max. Number of Micro iterations      ....    24
   Max. Number of Macro iterations      .... Maxiter - #DIIS iter
   Number of Davidson start vectors     ....     2
   Converg. threshold    (grad. norm)   ....   1.000e-05
   Grad. Scal. Fac. for Micro threshold ....   0.100
   Minimum threshold for Micro iter.    ....   1.000e-02
   NR start threshold (gradient norm)   ....   1.000e-04
   Initial trust radius                 ....   0.400
   Minimum AH scaling param. (alpha)    ....   1.000
   Maximum AH scaling param. (alpha)    .... 1000.000
   Quad. conv. algorithm                .... NR
   White noise on init. David. guess    .... on
   Maximum white noise                  ....   0.010
   Pseudo random numbers                .... off
   Inactive MOs                         .... canonical
   Orbital update algorithm             .... Taylor
   Preconditioner                       .... Diag
   Full preconditioner red. dimension   ....   250
 SOSCF                 CNVSOSCF           .... on
   Start iteration     SOSCFMaxIt         ....   150
   Startup grad/error  SOSCFStart         ....  0.003300
   Hessian update      SOSCFHessUp        .... L-BFGS
   Autom. constraints  SOSCFAutoConstrain .... off
 Level Shifting         CNVShift        .... on
   Level shift para.    LevelShift      ....    0.2500
   Turn off err/grad.   ShiftErr        ....    0.0010
 Zerner damping         CNVZerner       .... off
 Static damping         CNVDamp         .... on
   Fraction old density DampFac         ....    0.7000
   Max. Damping (<1)    DampMax         ....    0.9800
   Min. Damping (>=0)   DampMin         ....    0.0000
   Turn off err/grad.   DampErr         ....    0.1000

SCF Procedure:
 Maximum # iterations   MaxIter         ....   125
 SCF integral mode      SCFMode         .... Direct
   Integral package                     .... SHARK and LIBINT hybrid scheme
 Reset frequency        DirectResetFreq ....    20
 Integral Threshold     Thresh          ....  2.500e-11 Eh
 Primitive CutOff       TCut            ....  2.500e-12 Eh

Convergence Tolerance:
 Convergence Check Mode ConvCheckMode   .... Total+1el-Energy
 Convergence forced     ConvForced      .... 1
 Energy Change          TolE            ....  1.000e-08 Eh
 1-El. energy change                    ....  1.000e-05 Eh
 Orbital Gradient       TolG            ....  1.000e-05
 Orbital Rotation angle TolX            ....  1.000e-05
 DIIS Error             TolErr          ....  5.000e-07

------------------------------
INITIAL GUESS: MODEL POTENTIAL
------------------------------
Loading Hartree-Fock densities                     ... done
Calculating cut-offs                               ... done
Initializing the effective Hamiltonian             ... done
Setting up the integral package (SHARK)            ... done
Starting the Coulomb interaction                   ... done (   0.0 sec)
Making the grid                                    ... done (   0.1 sec)
Mapping shells                                     ... done
Starting the XC term evaluation                    ... done (   0.0 sec)
Transforming the Hamiltonian                       ... done (   0.0 sec)
Diagonalizing the Hamiltonian                      ... done (   0.0 sec)
Back transforming the eigenvectors                 ... done (   0.0 sec)
Now organizing SCF variables                       ... done
                      ------------------
                      INITIAL GUESS DONE (   0.1 sec)
                      ------------------
             **** ENERGY FILE WAS UPDATED (/home/vivek/mm/lab5/6-311/hf/dimer/dimer.en.tmp) ****
Finished Guess after   0.1 sec
Maximum memory used throughout the entire GUESS-calculation: 3.9 MB

-------------------------------------------------------------------------------------------
                                      ORCA LEAN-SCF
                              memory conserving SCF solver
-------------------------------------------------------------------------------------------

----------------------------------------D-I-I-S--------------------------------------------
Iteration    Energy (Eh)           Delta-E    RMSDP     MaxDP     DIISErr   Damp  Time(sec)
-------------------------------------------------------------------------------------------
               ***  Starting incremental Fock matrix formation  ***
    1    -200.0214092848907512     0.00e+00  2.39e-03  2.52e-02  3.01e-01  0.700   0.1
    2    -200.0474970059215707    -2.61e-02  1.58e-03  1.36e-02  1.83e-01  0.700   0.1
                               ***Turning on AO-DIIS***
    3    -200.0623236183950553    -1.48e-02  7.40e-04  5.80e-03  1.05e-01  0.700   0.1
    4    -200.0716895554700727    -9.37e-03  5.58e-04  4.30e-03  7.51e-02  0.700   0.1
    5    -200.0781140499843218    -6.42e-03  1.43e-03  1.12e-02  5.50e-02  0.000   0.1
    6    -200.0930996192292923    -1.50e-02  1.56e-04  1.55e-03  4.68e-03  0.000   0.2
                              *** Initializing SOSCF ***
---------------------------------------S-O-S-C-F--------------------------------------
Iteration    Energy (Eh)           Delta-E    RMSDP     MaxDP     MaxGrad    Time(sec)
--------------------------------------------------------------------------------------
    7    -200.0931342269722109    -3.46e-05  6.79e-05  5.75e-04  1.16e-03     0.3
               *** Restarting incremental Fock matrix formation ***
    8    -200.0931391651939180    -4.94e-06  3.18e-05  2.75e-04  2.97e-04     0.1
    9    -200.0931400811543313    -9.16e-07  2.25e-05  1.86e-04  1.29e-04     0.2
   10    -200.0931402758262720    -1.95e-07  3.07e-06  2.76e-05  2.35e-05     0.3
   11    -200.0931402818883953    -6.06e-09  3.75e-07  2.78e-06  2.61e-06     0.2
                 **** Energy Check signals convergence ****

               *****************************************************
               *                     SUCCESS                       *
               *           SCF CONVERGED AFTER  11 CYCLES          *
               *****************************************************

             **** ENERGY FILE WAS UPDATED (/home/vivek/mm/lab5/6-311/hf/dimer/dimer.en.tmp) ****

----------------
TOTAL SCF ENERGY
----------------

Total Energy       :       -200.09314028184019 Eh           -5444.81116 eV

Components:
Nuclear Repulsion  :         32.07936209266408 Eh             872.92382 eV
Electronic Energy  :       -232.17250237450429 Eh           -6317.73498 eV
One Electron Energy:       -344.65281968739612 Eh           -9378.48002 eV
Two Electron Energy:        112.48031731289183 Eh            3060.74504 eV

Virial components:
Potential Energy   :       -400.21803596587665 Eh          -10890.48642 eV
Kinetic Energy     :        200.12489568403643 Eh            5445.67526 eV
Virial Ratio       :          1.99984132207996

---------------
SCF CONVERGENCE
---------------

  Last Energy change         ...    6.0621e-09  Tolerance :   1.0000e-08
  Last MAX-Density change    ...    2.7812e-06  Tolerance :   1.0000e-07
  Last RMS-Density change    ...    3.7467e-07  Tolerance :   5.0000e-09
  Last DIIS Error            ...    1.1599e-03  Tolerance :   5.0000e-07
  Last Orbital Gradient      ...    2.6113e-06  Tolerance :   1.0000e-05
  Last Orbital Rotation      ...    2.6397e-06  Tolerance :   1.0000e-05


----------------
ORBITAL ENERGIES
----------------

  NO   OCC          E(Eh)            E(eV) 
   0   2.0000     -26.333612      -716.5740 
   1   2.0000     -26.226850      -713.6689 
   2   2.0000      -1.642877       -44.7049 
   3   2.0000      -1.538362       -41.8610 
   4   2.0000      -0.835022       -22.7221 
   5   2.0000      -0.705856       -19.2073 
   6   2.0000      -0.695747       -18.9322 
   7   2.0000      -0.680897       -18.5281 
   8   2.0000      -0.593544       -16.1512 
   9   2.0000      -0.593325       -16.1452 
  10   0.0000       0.110952         3.0192 
  11   0.0000       0.264788         7.2053 
  12   0.0000       0.486579        13.2405 
  13   0.0000       0.651783        17.7359 
  14   0.0000       1.110463        30.2172 
  15   0.0000       1.119936        30.4750 
  16   0.0000       1.229539        33.4575 
  17   0.0000       1.262610        34.3574 
  18   0.0000       1.263185        34.3730 
  19   0.0000       1.445291        39.3284 
  20   0.0000       1.513835        41.1935 
*Only the first 10 virtual orbitals were printed.

                    ********************************
                    * MULLIKEN POPULATION ANALYSIS *
                    ********************************

-----------------------
MULLIKEN ATOMIC CHARGES
-----------------------
   0 F :   -0.343279
   1 H :    0.361975
   2 H :    0.380354
   3 F :   -0.399050
Sum of atomic charges:    0.0000000

--------------------------------
MULLIKEN REDUCED ORBITAL CHARGES
--------------------------------
  0 F s       :     3.905952  s :     3.905952
      pz      :     1.890439  p :     5.433857
      px      :     1.569073
      py      :     1.974345
      dz2     :     0.000279  d :     0.003470
      dxz     :     0.001459
      dyz     :     0.000098
      dx2y2   :     0.001344
      dxy     :     0.000290

  1 H s       :     0.552236  s :     0.552236
      pz      :     0.024612  p :     0.085789
      px      :     0.041015
      py      :     0.020161

  2 H s       :     0.524595  s :     0.524595
      pz      :     0.025735  p :     0.095051
      px      :     0.047799
      py      :     0.021517

  3 F s       :     3.931668  s :     3.931668
      pz      :     1.880353  p :     5.463397
      px      :     1.613232
      py      :     1.969811
      dz2     :     0.000314  d :     0.003986
      dxz     :     0.001652
      dyz     :     0.000118
      dx2y2   :     0.001478
      dxy     :     0.000423



                     *******************************
                     * LOEWDIN POPULATION ANALYSIS *
                     *******************************

----------------------
LOEWDIN ATOMIC CHARGES
----------------------
   0 F :   -0.022570
   1 H :    0.105438
   2 H :    0.031427
   3 F :   -0.114295

-------------------------------
LOEWDIN REDUCED ORBITAL CHARGES
-------------------------------
  0 F s       :     3.647988  s :     3.647988
      pz      :     1.870432  p :     5.370561
      px      :     1.556820
      py      :     1.943308
      dz2     :     0.000260  d :     0.004021
      dxz     :     0.001711
      dyz     :     0.000052
      dx2y2   :     0.001842
      dxy     :     0.000155

  1 H s       :     0.659825  s :     0.659825
      pz      :     0.065798  p :     0.234737
      px      :     0.117473
      py      :     0.051466

  2 H s       :     0.692953  s :     0.692953
      pz      :     0.072167  p :     0.275620
      px      :     0.148289
      py      :     0.055164

  3 F s       :     3.675923  s :     3.675923
      pz      :     1.863287  p :     5.434302
      px      :     1.630853
      py      :     1.940162
      dz2     :     0.000215  d :     0.004070
      dxz     :     0.001835
      dyz     :     0.000070
      dx2y2   :     0.001690
      dxy     :     0.000259



                      *****************************
                      * MAYER POPULATION ANALYSIS *
                      *****************************

  NA   - Mulliken gross atomic population
  ZA   - Total nuclear charge
  QA   - Mulliken gross atomic charge
  VA   - Mayer's total valence
  BVA  - Mayer's bonded valence
  FA   - Mayer's free valence

  ATOM       NA         ZA         QA         VA         BVA        FA
  0 F      9.3433     9.0000    -0.3433     0.9392     0.9392     0.0000
  1 H      0.6380     1.0000     0.3620     0.9081     0.9081    -0.0000
  2 H      0.6196     1.0000     0.3804     0.9068     0.9068     0.0000
  3 F      9.3991     9.0000    -0.3991     0.8714     0.8714     0.0000

  Mayer bond orders larger than 0.100000
B(  0-F ,  1-H ) :   0.8972 B(  2-H ,  3-F ) :   0.8627 

-------
TIMINGS
-------

Total SCF time: 0 days 0 hours 0 min 2 sec 

Total time                  ....       2.204 sec
Sum of individual times     ....       1.547 sec  ( 70.2%)

SCF preparation             ....       0.054 sec  (  2.5%)
Fock matrix formation       ....       0.922 sec  ( 41.8%)
  Startup                   ....       0.001 sec  (  0.1% of F)
  Coulomb+Exchange Fock     ....       0.651 sec  ( 70.5% of F)
Diagonalization             ....       0.000 sec  (  0.0%)
Density matrix formation    ....       0.077 sec  (  3.5%)
Total Energy calculation    ....       0.001 sec  (  0.0%)
Population analysis         ....       0.002 sec  (  0.1%)
Orbital Transformation      ....       0.237 sec  ( 10.7%)
Orbital Orthonormalization  ....       0.000 sec  (  0.0%)
DIIS solution               ....       0.058 sec  (  2.6%)
SOSCF solution              ....       0.196 sec  (  8.9%)
Finished LeanSCF after   2.9 sec

Maximum memory used throughout the entire LEANSCF-calculation: 7.4 MB

------------------------------------------------------------------------------
                                ORCA  MP2 
------------------------------------------------------------------------------

Freezing NCore=4 chemical core electrons
MP2 will be done in the AO integral direct mode
The Q1-step will be done using symmetric double matrices
Dimension of the basis                    ...   48
Memory devoted for MP2                    ... 4096 MB   
Memory needed for all in one shot         ...    4 MB
Number of MOs that can be treated together... 9509      
MP2 density construction                  ... relaxed
The MP2 gradient is requested => amplitudes will be stored on disk
Total number of MOs              ...    8
Number of MOs treated per batch  ...    8 
Number of batches necessary      ...    1 
OPERATORS   0/  0 PASS   0
-----------------------------------------------
 MP2 CORRELATION ENERGY   :     -0.444627851 Eh
-----------------------------------------------


---------------------
MP2 DENSITY FORMATION
---------------------

Completing the external part of the density      ... done
Storing the unrelaxed density                    ... done

Calculating G(D)                                 ... done
Completing the Lagrangian                        ... done
Solving the Z-vector equations                   ... 
-------------------
SHARK CP-SCF DRIVER
-------------------

Dimension of the orbital basis          ...     48
Dimension of the CPSCF-problem          ...    380
Number of operators                     ...      1
Max. number of iterations               ...    128
Convergence Tolerance                   ... 1.0e-04
Number of perturbations                 ...      1
Perturbation type                       ... REAL

----------------------------
POPLE LINEAR EQUATION SOLVER
----------------------------

  ITERATION   0:   ||err||_max =   1.7088e-02 (   0.1 sec)
  ITERATION   1:   ||err||_max =   2.8831e-03 (   0.1 sec)
  ITERATION   2:   ||err||_max =   4.4298e-04 (   0.1 sec)
  ITERATION   3:   ||err||_max =   1.0959e-04 (   0.1 sec)
  ITERATION   4:   ||err||_max =   2.8991e-05 (   0.1 sec)
                                                 ... done
Finalizing the relaxed density                   ... done
Transforming P to the AO basis                   ... done
Storing the relaxed density                      ... done

------------------------------------
ENERGY WEIGHTED DENSITY FINALIZATION
------------------------------------

Gathering the parts of the W-matrix              ...                                                      done
Forming the Z-density                            ... done
Transforming Z to the AO basis                   ... done
Calculating G(Z)                                 ... done
Finalizing the W-matrix                          ...                                                      done
Transforming W to the AO basis and storing       ... done

                *********************************************
                * UNRELAXED MP2 DENSITY POPULATION ANALYSIS *
                *********************************************

------------------------------------------------------------------------------
                           ORCA POPULATION ANALYSIS
------------------------------------------------------------------------------
Input electron density              ... /home/vivek/mm/lab5/6-311/hf/dimer/dimer.pmp2ur
BaseName (.gbw .S,...)              ... /home/vivek/mm/lab5/6-311/hf/dimer/dimer

                    ********************************
                    * MULLIKEN POPULATION ANALYSIS *
                    ********************************

-----------------------
MULLIKEN ATOMIC CHARGES
-----------------------
   0 F :   -0.336883
   1 H :    0.356127
   2 H :    0.374100
   3 F :   -0.393343
Sum of atomic charges:    0.0000000

--------------------------------
MULLIKEN REDUCED ORBITAL CHARGES
--------------------------------
  0 F s       :     3.904026  s :     3.904026
      pz      :     1.884469  p :     5.415550
      px      :     1.562501
      py      :     1.968580
      dz2     :     0.003069  d :     0.017308
      dxz     :     0.004181
      dyz     :     0.002880
      dx2y2   :     0.004085
      dxy     :     0.003092
  1 H s       :     0.556436  s :     0.556436
      pz      :     0.025451  p :     0.087438
      px      :     0.040610
      py      :     0.021378
  2 H s       :     0.528890  s :     0.528890
      pz      :     0.026653  p :     0.097010
      px      :     0.047573
      py      :     0.022785
  3 F s       :     3.930073  s :     3.930073
      pz      :     1.874496  p :     5.445574
      px      :     1.606913
      py      :     1.964165
      dz2     :     0.003081  d :     0.017696
      dxz     :     0.004352
      dyz     :     0.002882
      dx2y2   :     0.004182
      dxy     :     0.003199


                     *******************************
                     * LOEWDIN POPULATION ANALYSIS *
                     *******************************

----------------------
LOEWDIN ATOMIC CHARGES
----------------------
   0 F :   -0.016515
   1 H :    0.100361
   2 H :    0.025434
   3 F :   -0.109280

-------------------------------
LOEWDIN REDUCED ORBITAL CHARGES
-------------------------------
  0 F s       :     3.646300  s :     3.646300
      pz      :     1.864459  p :     5.352008
      px      :     1.550013
      py      :     1.937535
      dz2     :     0.003060  d :     0.018207
      dxz     :     0.004609
      dyz     :     0.002834
      dx2y2   :     0.004746
      dxy     :     0.002958
  1 H s       :     0.662047  s :     0.662047
      pz      :     0.066891  p :     0.237592
      px      :     0.118015
      py      :     0.052686
  2 H s       :     0.695952  s :     0.695952
      pz      :     0.073322  p :     0.278614
      px      :     0.148832
      py      :     0.056460
  3 F s       :     3.674483  s :     3.674483
      pz      :     1.857495  p :     5.416644
      px      :     1.624597
      py      :     1.934552
      dz2     :     0.002996  d :     0.018153
      dxz     :     0.004710
      dyz     :     0.002837
      dx2y2   :     0.004565
      dxy     :     0.003044


                      *****************************
                      * MAYER POPULATION ANALYSIS *
                      *****************************

  NA   - Mulliken gross atomic population
  ZA   - Total nuclear charge
  QA   - Mulliken gross atomic charge
  VA   - Mayer's total valence
  BVA  - Mayer's bonded valence
  FA   - Mayer's free valence

  ATOM       NA         ZA         QA         VA         BVA        FA
  0 F      9.3369     9.0000    -0.3369     1.1868     0.9013     0.2854
  1 H      0.6439     1.0000     0.3561     0.9170     0.8711     0.0459
  2 H      0.6259     1.0000     0.3741     0.9162     0.8717     0.0445
  3 F      9.3933     9.0000    -0.3933     1.1205     0.8363     0.2843

  Mayer bond orders larger than 0.100000
B(  0-F ,  1-H ) :   0.8607 B(  2-H ,  3-F ) :   0.8285 


                *******************************************
                * RELAXED MP2 DENSITY POPULATION ANALYSIS *
                *******************************************

------------------------------------------------------------------------------
                           ORCA POPULATION ANALYSIS
------------------------------------------------------------------------------
Input electron density              ... /home/vivek/mm/lab5/6-311/hf/dimer/dimer.pmp2re
BaseName (.gbw .S,...)              ... /home/vivek/mm/lab5/6-311/hf/dimer/dimer

                    ********************************
                    * MULLIKEN POPULATION ANALYSIS *
                    ********************************

-----------------------
MULLIKEN ATOMIC CHARGES
-----------------------
   0 F :   -0.306940
   1 H :    0.334460
   2 H :    0.342432
   3 F :   -0.369953
Sum of atomic charges:    0.0000000

--------------------------------
MULLIKEN REDUCED ORBITAL CHARGES
--------------------------------
  0 F s       :     3.904020  s :     3.904020
      pz      :     1.878845  p :     5.385742
      px      :     1.540850
      py      :     1.966046
      dz2     :     0.003069  d :     0.017178
      dxz     :     0.004110
      dyz     :     0.002881
      dx2y2   :     0.004020
      dxy     :     0.003099
  1 H s       :     0.577651  s :     0.577651
      pz      :     0.026604  p :     0.087889
      px      :     0.037705
      py      :     0.023580
  2 H s       :     0.559992  s :     0.559992
      pz      :     0.027819  p :     0.097576
      px      :     0.044668
      py      :     0.025088
  3 F s       :     3.927091  s :     3.927091
      pz      :     1.868846  p :     5.425314
      px      :     1.594967
      py      :     1.961501
      dz2     :     0.003080  d :     0.017548
      dxz     :     0.004275
      dyz     :     0.002882
      dx2y2   :     0.004112
      dxy     :     0.003199


                     *******************************
                     * LOEWDIN POPULATION ANALYSIS *
                     *******************************

----------------------
LOEWDIN ATOMIC CHARGES
----------------------
   0 F :   -0.000470
   1 H :    0.088289
   2 H :    0.008154
   3 F :   -0.095973

-------------------------------
LOEWDIN REDUCED ORBITAL CHARGES
-------------------------------
  0 F s       :     3.644658  s :     3.644658
      pz      :     1.861064  p :     5.337594
      px      :     1.541270
      py      :     1.935259
      dz2     :     0.003068  d :     0.018218
      dxz     :     0.004602
      dyz     :     0.002835
      dx2y2   :     0.004748
      dxy     :     0.002964
  1 H s       :     0.673414  s :     0.673414
      pz      :     0.068014  p :     0.238297
      px      :     0.115553
      py      :     0.054730
  2 H s       :     0.711954  s :     0.711954
      pz      :     0.074755  p :     0.279892
      px      :     0.146484
      py      :     0.058653
  3 F s       :     3.673021  s :     3.673021
      pz      :     1.854033  p :     5.404834
      px      :     1.618549
      py      :     1.932252
      dz2     :     0.002998  d :     0.018118
      dxz     :     0.004687
      dyz     :     0.002838
      dx2y2   :     0.004547
      dxy     :     0.003047


                      *****************************
                      * MAYER POPULATION ANALYSIS *
                      *****************************

  NA   - Mulliken gross atomic population
  ZA   - Total nuclear charge
  QA   - Mulliken gross atomic charge
  VA   - Mayer's total valence
  BVA  - Mayer's bonded valence
  FA   - Mayer's free valence

  ATOM       NA         ZA         QA         VA         BVA        FA
  0 F      9.3069     9.0000    -0.3069     1.2233     0.9401     0.2832
  1 H      0.6655     1.0000     0.3345     0.9385     0.8929     0.0456
  2 H      0.6576     1.0000     0.3424     0.9568     0.9128     0.0439
  3 F      9.3700     9.0000    -0.3700     1.1454     0.8629     0.2826

  Mayer bond orders larger than 0.100000
B(  0-F ,  1-H ) :   0.8800 B(  2-H ,  3-F ) :   0.8513 


----------------------------------
MP2 DERIVATIVE INTEGRAL GENERATION
----------------------------------

Input SCF Electron Density              ... /home/vivek/mm/lab5/6-311/hf/dimer/dimer.scfp
Input Correlated Electron Density       ... /home/vivek/mm/lab5/6-311/hf/dimer/dimer.pmp2re
Input Energy Weighted Density           ... /home/vivek/mm/lab5/6-311/hf/dimer/dimer.wmp2.tmp
Input Wavefunction Amplitudes           ... /home/vivek/mm/lab5/6-311/hf/dimer/dimer.mp2tsaa.tmp

Nuclear repulsion gradient              ... done (  0.0 sec)
HCore & Overlap gradient  (SHARK)       ... done (  0.0 sec)
Analytic two-electron gradient terms    ... 
  Batch handling in the gradient evaluation:
  General contraction                   ... not used
  Memory available                      ... 4094.0 MB
  Memory per occupied orbital in Q2     ...    0.1 MB
  Memory per occupied orbital in Q3     ...    0.0 MB
  Total memory requirement per |i>      ...    0.1 MB
  Number of orbitals treated per batch  ...      8
  Number of batches to be done          ...      1
done (  0.3 sec)

---------------------------------------
MP2 TOTAL ENERGY:     -200.537768133 Eh
---------------------------------------

The final MP2 gradient
  0:  -0.03698524   0.00305583  -0.01136677
  1:   0.02408572  -0.00223684   0.00912231
  2:   0.02876261  -0.00429024   0.01369638
  3:  -0.01586310   0.00347125  -0.01145192

-----------------------------------
NORM OF THE MP2 GRADIENT:  0.060024
-----------------------------------

Maximum memory used throughout the entire MP2-calculation: 14.7 MB

-------------------------   --------------------
FINAL SINGLE POINT ENERGY      -200.537768132600
-------------------------   --------------------

------------------------------------------------------------------------------
                         ORCA GEOMETRY RELAXATION STEP
------------------------------------------------------------------------------

Reading the OPT-File                    .... done
Getting information on internals        .... done
Copying old internal coords+grads       .... done
Making the new internal coordinates     .... (2022 redundants) done
Validating the new internal coordinates .... (2022 redundants) done
Calculating the B-matrix                .... done
Calculating the G,G- and P matrices     .... done
Transforming gradient to internals      .... done
Projecting the internal gradient        .... done
Number of atoms                         ....   4
Number of internal coordinates          ....   6
Current Energy                          ....  -200.537768133 Eh
Current gradient norm                   ....     0.060024250 Eh/bohr
Maximum allowed component of the step   ....  0.300
Current trust radius                    ....  0.300
Evaluating the initial hessian          ....  (Almloef) done
Projecting the Hessian                  .... done
Forming the augmented Hessian           .... done
Diagonalizing the augmented Hessian     .... done
Last element of RFO vector              ....  0.971357783
Lowest eigenvalues of augmented Hessian:
 -0.005268644  0.010000013  0.053562271  0.224264812  0.224466967
Length of the computed step             ....  0.244628369
The final length of the internal step   ....  0.244628369
Converting the step to Cartesian space:
 Initial RMS(Int)=    0.0998691135
Transforming coordinates:
 Iter   0:  RMS(Cart)=    0.0581477157 RMS(Int)=    0.0998797438
done
Storing new coordinates                 .... done

                                .--------------------.
          ----------------------|Geometry convergence|-------------------------
          Item                value                   Tolerance       Converged
          ---------------------------------------------------------------------
          RMS gradient        0.0145267918            0.0001000000      NO
          MAX gradient        0.0257675263            0.0003000000      NO
          RMS step            0.0998691135            0.0020000000      NO
          MAX step            0.2349296805            0.0040000000      NO
          -------------------------------------------------------------------------
          ........................................................
          Max(Bonds)      0.1243      Max(Angles)    1.41
          Max(Dihed)        0.05      Max(Improp)    0.00
          ---------------------------------------------------------------------

The optimization has not yet converged - more geometry cycles are needed


    ---------------------------------------------------------------------------
                         Redundant Internal Coordinates
                            (Angstroem and degrees)

        Definition                    Value    dE/dq     Step     New-Value
    ----------------------------------------------------------------------------
     1. B(H   1,F   0)                0.9392  0.025768 -0.0259    0.9133   
     2. B(H   2,F   0)                1.5747 -0.013102  0.1243    1.6990   
     3. B(F   3,H   2)                0.9392  0.019612 -0.0197    0.9195   
     4. A(H   1,F   0,H   2)          161.62  0.003713   -0.93    160.69   
     5. A(F   0,H   2,F   3)          159.81 -0.005668    1.41    161.22   
     6. D(F   3,H   2,F   0,H   1)    175.29 -0.000015    0.05    175.34   
    ----------------------------------------------------------------------------

Geometry step timings:
Preparation and reading OPT file:      0.000 s ( 5.172 %)
Internal coordinates            :      0.000 s ( 4.655 %)
B/P matrices and projection     :      0.000 s (17.586 %)
Hessian update/contruction      :      0.000 s (19.828 %)
Making the step                 :      0.000 s (15.517 %)
Converting the step to Cartesian:      0.000 s ( 6.724 %)
Storing new data                :      0.000 s ( 5.000 %)
Checking convergence            :      0.000 s ( 6.552 %)
Final printing                  :      0.000 s (18.966 %)
Total time                      :      0.001 s

Time for energy+gradient        :      5.271 s
Time for complete geometry iter :      5.346 s

         *************************************************************
         *                GEOMETRY OPTIMIZATION CYCLE   2            *
         *************************************************************
---------------------------------
CARTESIAN COORDINATES (ANGSTROEM)
---------------------------------
  F     -1.380207    2.405937    0.116030
  H     -0.569129    2.308575    0.524439
  H     -3.062321    2.480685   -0.111276
  F     -3.882549    2.600570   -0.509164

----------------------------
CARTESIAN COORDINATES (A.U.)
----------------------------
  NO LB      ZA    FRAG     MASS         X           Y           Z
   0 F     9.0000    0    18.998   -2.608213    4.546562    0.219265
   1 H     1.0000    0     1.008   -1.075497    4.362574    0.991047
   2 H     1.0000    0     1.008   -5.786948    4.687815   -0.210281
   3 F     9.0000    0    18.998   -7.336954    4.914365   -0.962180

--------------------------------
INTERNAL COORDINATES (ANGSTROEM)
--------------------------------
 F      0   0   0     0.000000000000     0.00000000     0.00000000
 H      1   0   0     0.913304804184     0.00000000     0.00000000
 H      1   2   0     1.699047437998   160.68838225     0.00000000
 F      3   1   2     0.919489551860   161.22404783   175.34362131

---------------------------
INTERNAL COORDINATES (A.U.)
---------------------------
 F      0   0   0     0.000000000000     0.00000000     0.00000000
 H      1   0   0     1.725895956702     0.00000000     0.00000000
 H      1   2   0     3.210734346356   160.68838225     0.00000000
 F      3   1   2     1.737583436018   161.22404783   175.34362131

------------------------------------------------------------------------------
                   ___                                                        
                  /   \      - P O W E R E D   B Y -                         
                 /     \                                                     
                 |  |  |   _    _      __       _____    __    __             
                 |  |  |  | |  | |    /  \     |  _  \  |  |  /  |          
                  \  \/   | |  | |   /    \    | | | |  |  | /  /          
                 / \  \   | |__| |  /  /\  \   | |_| |  |  |/  /          
                |  |  |   |  __  | /  /__\  \  |    /   |      \           
                |  |  |   | |  | | |   __   |  |    \   |  |\   \          
                \     /   | |  | | |  |  |  |  | |\  \  |  | \   \       
                 \___/    |_|  |_| |__|  |__|  |_| \__\ |__|  \__/        
                                                                              
                      - O R C A' S   B I G   F R I E N D -                    
                                      &                                       
                       - I N T E G R A L  F E E D E R -                       
                                                                              
 v1 FN, 2020, v2 2021, v3 2022-2024                                           
------------------------------------------------------------------------------


----------------------
SHARK INTEGRAL PACKAGE
----------------------

Number of atoms                             ...      4
Number of basis functions                   ...     48
Number of shells                            ...     24
Maximum angular momentum                    ...      2
Integral batch strategy                     ... SHARK/LIBINT Hybrid
RI-J (if used) integral strategy            ... SPLIT-RIJ (Revised 2003 algorithm where possible)
Printlevel                                  ...      1
Contraction scheme used                     ... SEGMENTED contraction
Prescreening option                         ... SCHWARTZ
   Thresh                                   ... 2.500e-11
   Tcut                                     ... 2.500e-12
   Tpresel                                  ... 2.500e-12 
Coulomb Range Separation                    ... NOT USED
Exchange Range Separation                   ... NOT USED
Multipole approximations                    ... NOT USED
Finite Nucleus Model                        ... NOT USED
CABS basis                                  ... NOT available
Auxiliary Coulomb fitting basis             ... NOT available
Auxiliary J/K fitting basis                 ... NOT available
Auxiliary Correlation fitting basis         ... NOT available
Auxiliary 'external' fitting basis          ... NOT available

Checking pre-screening integrals            ... done (  0.0 sec) Dimension = 24
   => SHARK Basis and OBASIS are compatible. Storing Pre-screening
Shell pair information
Shell pair cut-off parameter TPreSel        ...   2.5e-12
Total number of shell pairs                 ...       300
Shell pairs after pre-screening             ...       281
Total number of primitive shell pairs       ...      1129
Primitive shell pairs kept                  ...       871
          la=0 lb=0:     99 shell pairs
          la=1 lb=0:    105 shell pairs
          la=1 lb=1:     35 shell pairs
          la=2 lb=0:     23 shell pairs
          la=2 lb=1:     16 shell pairs
          la=2 lb=2:      3 shell pairs

Checking whether 4 symmetric matrices of dimension 48 fit in memory
:Max Core in MB      =   4096.00
 MB in use           =      1.55
 MB left             =   4094.45
 MB needed           =      0.04
 Data fit in memory  = YES
Calculating Nuclear repulsion               ... done (  0.0 sec) ENN=     31.341276577885 Eh

Diagonalization of the overlap matrix:
Smallest eigenvalue                        ... 2.102e-02
Time for diagonalization                   ...    0.000 sec
Threshold for overlap eigenvalues          ... 1.000e-07
Number of eigenvalues below threshold      ... 0
Time for construction of square roots      ...    0.000 sec
Total time needed                          ...    0.001 sec

-------------------
DFT GRID GENERATION
-------------------

General Integration Accuracy     IntAcc      ... 4.388
Radial Grid Type                 RadialGrid  ... OptM3 with GC (2021)
Angular Grid (max. ang.)         AngularGrid ... 4 (Lebedev-302)
Angular grid pruning method      GridPruning ... 4 (adaptive)
Weight generation scheme         WeightScheme... mBecke (2022)
Basis function cutoff            BFCut       ... 1.0000e-11
Integration weight cutoff        WCut        ... 1.0000e-14
Partially contracted basis set               ... off
Rotationally invariant grid construction     ... off
Angular grids for H and He will be reduced by one unit

Total number of grid points                  ...    18884
Total number of batches                      ...      297
Average number of points per batch           ...       63
Average number of grid points per atom       ...     4721
Grids setup in   0.1 sec
Initializing property integral containers    ... done (  0.0 sec)

SHARK setup successfully completed in   0.2 seconds

Maximum memory used throughout the entire STARTUP-calculation: 7.7 MB
Occupation numbers will be reassigned to an Aufbau configuration
             **** ENERGY FILE WAS UPDATED (/home/vivek/mm/lab5/6-311/hf/dimer/dimer.en.tmp) ****
Finished Guess after   0.2 sec
Maximum memory used throughout the entire GUESS-calculation: 3.9 MB
----------------------------------------D-I-I-S--------------------------------------------
Iteration    Energy (Eh)           Delta-E    RMSDP     MaxDP     DIISErr   Damp  Time(sec)
-------------------------------------------------------------------------------------------
               ***  Starting incremental Fock matrix formation  ***
    1    -200.0977578065992475     0.00e+00  2.35e-04  1.89e-03  1.64e-02  0.700   0.1
    2    -200.0979848894270390    -2.27e-04  1.98e-04  1.69e-03  1.25e-02  0.700   0.3
                               ***Turning on AO-DIIS***
    3    -200.0981582160189873    -1.73e-04  1.71e-04  1.48e-03  9.37e-03  0.700   0.2
    4    -200.0982874581765429    -1.29e-04  4.44e-04  3.94e-03  6.84e-03  0.000   0.1
                              *** Initializing SOSCF ***
---------------------------------------S-O-S-C-F--------------------------------------
Iteration    Energy (Eh)           Delta-E    RMSDP     MaxDP     MaxGrad    Time(sec)
--------------------------------------------------------------------------------------
    5    -200.0986302675371746    -3.43e-04  4.56e-05  4.08e-04  6.61e-04     0.1
               *** Restarting incremental Fock matrix formation ***
    6    -200.0986318649733846    -1.60e-06  2.13e-05  1.92e-04  1.38e-04     0.1
    7    -200.0986322079208151    -3.43e-07  1.65e-05  1.45e-04  6.02e-05     0.1
    8    -200.0986322954323384    -8.75e-08  2.32e-06  2.93e-05  2.96e-05     0.1
    9    -200.0986322986396715    -3.21e-09  6.71e-07  7.51e-06  8.25e-06     0.2
                 **** Energy Check signals convergence ****

               *****************************************************
               *                     SUCCESS                       *
               *           SCF CONVERGED AFTER   9 CYCLES          *
               *****************************************************

             **** ENERGY FILE WAS UPDATED (/home/vivek/mm/lab5/6-311/hf/dimer/dimer.en.tmp) ****

----------------
TOTAL SCF ENERGY
----------------

Total Energy       :       -200.09863229908413 Eh           -5444.96060 eV

Components:
Nuclear Repulsion  :         31.34127657788454 Eh             852.83949 eV
Electronic Energy  :       -231.43990887696867 Eh           -6297.80009 eV
One Electron Energy:       -343.11869372433847 Eh           -9336.73433 eV
Two Electron Energy:        111.67878484736980 Eh            3038.93423 eV

Virial components:
Potential Energy   :       -400.29042152288696 Eh          -10892.45613 eV
Kinetic Energy     :        200.19178922380283 Eh            5447.49553 eV
Virial Ratio       :          1.99953466161085

---------------
SCF CONVERGENCE
---------------

  Last Energy change         ...    3.2073e-09  Tolerance :   1.0000e-08
  Last MAX-Density change    ...    7.5125e-06  Tolerance :   1.0000e-07
  Last RMS-Density change    ...    6.7133e-07  Tolerance :   5.0000e-09
  Last DIIS Error            ...    6.6083e-04  Tolerance :   5.0000e-07
  Last Orbital Gradient      ...    8.2509e-06  Tolerance :   1.0000e-05
  Last Orbital Rotation      ...    2.7974e-06  Tolerance :   1.0000e-05


Total SCF time: 0 days 0 hours 0 min 1 sec 
Finished LeanSCF after   1.4 sec

Maximum memory used throughout the entire LEANSCF-calculation: 7.5 MB

------------------------------------------------------------------------------
                                ORCA  MP2 
------------------------------------------------------------------------------

Freezing NCore=4 chemical core electrons
MP2 will be done in the AO integral direct mode
The Q1-step will be done using symmetric double matrices
Dimension of the basis                    ...   48
Memory devoted for MP2                    ... 4096 MB   
Memory needed for all in one shot         ...    4 MB
Number of MOs that can be treated together... 9509      
MP2 density construction                  ... relaxed
The MP2 gradient is requested => amplitudes will be stored on disk
Total number of MOs              ...    8
Number of MOs treated per batch  ...    8 
Number of batches necessary      ...    1 
OPERATORS   0/  0 PASS   0
-----------------------------------------------
 MP2 CORRELATION ENERGY   :     -0.442485663 Eh
-----------------------------------------------


---------------------
MP2 DENSITY FORMATION
---------------------

Completing the external part of the density      ... done
Storing the unrelaxed density                    ... done

Calculating G(D)                                 ... done
Completing the Lagrangian                        ... done
Solving the Z-vector equations                   ... 
-------------------
SHARK CP-SCF DRIVER
-------------------

Dimension of the orbital basis          ...     48
Dimension of the CPSCF-problem          ...    380
Number of operators                     ...      1
Max. number of iterations               ...    128
Convergence Tolerance                   ... 1.0e-04
Number of perturbations                 ...      1
Perturbation type                       ... REAL

----------------------------
POPLE LINEAR EQUATION SOLVER
----------------------------

  ITERATION   0:   ||err||_max =   1.5976e-02 (   0.1 sec)
  ITERATION   1:   ||err||_max =   2.6490e-03 (   0.1 sec)
  ITERATION   2:   ||err||_max =   4.5622e-04 (   0.1 sec)
  ITERATION   3:   ||err||_max =   1.1365e-04 (   0.1 sec)
  ITERATION   4:   ||err||_max =   2.3292e-05 (   0.1 sec)
                                                 ... done
Finalizing the relaxed density                   ... done
Transforming P to the AO basis                   ... done
Storing the relaxed density                      ... done

------------------------------------
ENERGY WEIGHTED DENSITY FINALIZATION
------------------------------------

Gathering the parts of the W-matrix              ...                                                      done
Forming the Z-density                            ... done
Transforming Z to the AO basis                   ... done
Calculating G(Z)                                 ... done
Finalizing the W-matrix                          ...                                                      done
Transforming W to the AO basis and storing       ... done

----------------------------------
MP2 DERIVATIVE INTEGRAL GENERATION
----------------------------------

Input SCF Electron Density              ... /home/vivek/mm/lab5/6-311/hf/dimer/dimer.scfp
Input Correlated Electron Density       ... /home/vivek/mm/lab5/6-311/hf/dimer/dimer.pmp2re
Input Energy Weighted Density           ... /home/vivek/mm/lab5/6-311/hf/dimer/dimer.wmp2.tmp
Input Wavefunction Amplitudes           ... /home/vivek/mm/lab5/6-311/hf/dimer/dimer.mp2tsaa.tmp

Nuclear repulsion gradient              ... done (  0.0 sec)
HCore & Overlap gradient  (SHARK)       ... done (  0.0 sec)
Analytic two-electron gradient terms    ... 
  Batch handling in the gradient evaluation:
  General contraction                   ... not used
  Memory available                      ... 4093.9 MB
  Memory per occupied orbital in Q2     ...    0.1 MB
  Memory per occupied orbital in Q3     ...    0.0 MB
  Total memory requirement per |i>      ...    0.1 MB
  Number of orbitals treated per batch  ...      8
  Number of batches to be done          ...      1
done (  0.3 sec)

---------------------------------------
MP2 TOTAL ENERGY:     -200.541117962 Eh
---------------------------------------

The final MP2 gradient
  0:  -0.00433630  -0.00014932   0.00148905
  1:  -0.00158484   0.00056257  -0.00255542
  2:   0.00661098  -0.00119023   0.00368504
  3:  -0.00068983   0.00077698  -0.00261867

-----------------------------------
NORM OF THE MP2 GRADIENT:  0.009851
-----------------------------------

Maximum memory used throughout the entire MP2-calculation: 14.8 MB

-------------------------   --------------------
FINAL SINGLE POINT ENERGY      -200.541117961937
-------------------------   --------------------

------------------------------------------------------------------------------
                         ORCA GEOMETRY RELAXATION STEP
------------------------------------------------------------------------------

Reading the OPT-File                    .... done
Getting information on internals        .... done
Copying old internal coords+grads       .... done
Making the new internal coordinates     .... (2022 redundants) done
Validating the new internal coordinates .... (2022 redundants) done
Calculating the B-matrix                .... done
Calculating the G,G- and P matrices     .... done
Transforming gradient to internals      .... done
Projecting the internal gradient        .... done
Number of atoms                         ....   4
Number of internal coordinates          ....   6
Current Energy                          ....  -200.541117962 Eh
Current gradient norm                   ....     0.009850878 Eh/bohr
Maximum allowed component of the step   ....  0.300
Current trust radius                    ....  0.300
Updating the Hessian (BFGS)             .... done
Forming the augmented Hessian           .... done
Diagonalizing the augmented Hessian     .... done
Last element of RFO vector              ....  0.984090520
Lowest eigenvalues of augmented Hessian:
 -0.001234160  0.010000002  0.035200522  0.216175201  0.224280690
Length of the computed step             ....  0.180540101
The final length of the internal step   ....  0.180540101
Converting the step to Cartesian space:
 Initial RMS(Int)=    0.0737051876
Transforming coordinates:
 Iter   0:  RMS(Cart)=    0.0514069272 RMS(Int)=    0.0737200447
done
Storing new coordinates                 .... done
The predicted energy change is          ....    -0.000637194
Previously predicted energy change      ....    -0.002791968
Actually observed energy change         ....    -0.003349829
Ratio of predicted to observed change   ....     1.199809350
New trust radius                        ....     0.450000000

                                .--------------------.
          ----------------------|Geometry convergence|-------------------------
          Item                value                   Tolerance       Converged
          ---------------------------------------------------------------------
          Energy change      -0.0033498293            0.0000050000      NO
          RMS gradient        0.0033596739            0.0001000000      NO
          MAX gradient        0.0060229703            0.0003000000      NO
          RMS step            0.0737051876            0.0020000000      NO
          MAX step            0.1775803165            0.0040000000      NO
          -------------------------------------------------------------------------
          ........................................................
          Max(Bonds)      0.0940      Max(Angles)    1.44
          Max(Dihed)        0.04      Max(Improp)    0.00
          ---------------------------------------------------------------------

The optimization has not yet converged - more geometry cycles are needed


    ---------------------------------------------------------------------------
                         Redundant Internal Coordinates
                            (Angstroem and degrees)

        Definition                    Value    dE/dq     Step     New-Value
    ----------------------------------------------------------------------------
     1. B(H   1,F   0)                0.9133 -0.002610  0.0008    0.9141   
     2. B(H   2,F   0)                1.6990 -0.006023  0.0940    1.7930   
     3. B(F   3,H   2)                0.9195  0.001850 -0.0047    0.9148   
     4. A(H   1,F   0,H   2)          160.69  0.002754   -1.06    159.63   
     5. A(F   0,H   2,F   3)          161.22 -0.003692    1.44    162.67   
     6. D(F   3,H   2,F   0,H   1)    175.34 -0.000007    0.04    175.39   
    ----------------------------------------------------------------------------

Geometry step timings:
Preparation and reading OPT file:      0.000 s ( 0.007 %)
Internal coordinates            :      0.000 s ( 0.007 %)
B/P matrices and projection     :      0.000 s ( 0.033 %)
Hessian update/contruction      :      0.000 s ( 0.043 %)
Making the step                 :      0.000 s ( 0.018 %)
Converting the step to Cartesian:      0.000 s ( 0.007 %)
Storing new data                :      0.000 s ( 0.007 %)
Checking convergence            :      0.000 s ( 0.017 %)
Final printing                  :      0.282 s (99.861 %)
Total time                      :      0.282 s

Time for energy+gradient        :      4.493 s
Time for complete geometry iter :      4.808 s

         *************************************************************
         *                GEOMETRY OPTIMIZATION CYCLE   3            *
         *************************************************************
---------------------------------
CARTESIAN COORDINATES (ANGSTROEM)
---------------------------------
  F     -1.331034    2.404284    0.117351
  H     -0.529365    2.303413    0.544895
  H     -3.104847    2.486969   -0.130980
  F     -3.928959    2.601100   -0.511236

----------------------------
CARTESIAN COORDINATES (A.U.)
----------------------------
  NO LB      ZA    FRAG     MASS         X           Y           Z
   0 F     9.0000    0    18.998   -2.515290    4.543439    0.221761
   1 H     1.0000    0     1.008   -1.000356    4.352820    1.029703
   2 H     1.0000    0     1.008   -5.867310    4.699691   -0.247517
   3 F     9.0000    0    18.998   -7.424657    4.915367   -0.966095

--------------------------------
INTERNAL COORDINATES (ANGSTROEM)
--------------------------------
 F      0   0   0     0.000000000000     0.00000000     0.00000000
 H      1   0   0     0.914134331793     0.00000000     0.00000000
 H      1   2   0     1.793018894150   159.62623779     0.00000000
 F      3   1   2     0.914757504824   162.66597655   175.38554407

---------------------------
INTERNAL COORDINATES (A.U.)
---------------------------
 F      0   0   0     0.000000000000     0.00000000     0.00000000
 H      1   0   0     1.727463536703     0.00000000     0.00000000
 H      1   2   0     3.388314662890   159.62623779     0.00000000
 F      3   1   2     1.728641163067   162.66597655   175.38554407

------------------------------------------------------------------------------
                   ___                                                        
                  /   \      - P O W E R E D   B Y -                         
                 /     \                                                     
                 |  |  |   _    _      __       _____    __    __             
                 |  |  |  | |  | |    /  \     |  _  \  |  |  /  |          
                  \  \/   | |  | |   /    \    | | | |  |  | /  /          
                 / \  \   | |__| |  /  /\  \   | |_| |  |  |/  /          
                |  |  |   |  __  | /  /__\  \  |    /   |      \           
                |  |  |   | |  | | |   __   |  |    \   |  |\   \          
                \     /   | |  | | |  |  |  |  | |\  \  |  | \   \       
                 \___/    |_|  |_| |__|  |__|  |_| \__\ |__|  \__/        
                                                                              
                      - O R C A' S   B I G   F R I E N D -                    
                                      &                                       
                       - I N T E G R A L  F E E D E R -                       
                                                                              
 v1 FN, 2020, v2 2021, v3 2022-2024                                           
------------------------------------------------------------------------------


----------------------
SHARK INTEGRAL PACKAGE
----------------------

Number of atoms                             ...      4
Number of basis functions                   ...     48
Number of shells                            ...     24
Maximum angular momentum                    ...      2
Integral batch strategy                     ... SHARK/LIBINT Hybrid
RI-J (if used) integral strategy            ... SPLIT-RIJ (Revised 2003 algorithm where possible)
Printlevel                                  ...      1
Contraction scheme used                     ... SEGMENTED contraction
Prescreening option                         ... SCHWARTZ
   Thresh                                   ... 2.500e-11
   Tcut                                     ... 2.500e-12
[...]
Quadrupole couplings                    ...  NO (   0 nuclei)
Contact density                         ...  NO (   0 nuclei)

NMR properties:
Chemical shifts                         ...  NO (   0 nuclei)
Spin-rotation constants                 ...  NO (   0 nuclei)
Spin-spin couplings                     ...  NO (   0 nuclei,    0 pairs)

Choice of magnetic origin               ... GIAO
Position of magnetic origin             ...     0.000000     0.000000     0.000000

Properties with geometric perturbations:
SCF Hessian                             ...  NO
IR spectrum                             ...  NO
VCD spectrum                            ...  NO
X-ray spectroscopy properties:
SCF XES/XAS/RIXS spectra                ...  NO

SCF SOC stabilization energy            ...  NO
Diagonal Born-Oppenheimer correction    ...  NO

-------------
DIPOLE MOMENT
-------------

Method             : SCF
Type of density    : Electron Density
Multiplicity       :   1
Irrep              :   0
Energy             :  -200.1011353576998886 Eh
Basis              : AO
                                X                 Y                 Z
Electronic contribution:      0.067346882       0.000849891      -0.015422508
Nuclear contribution   :      0.930808591      -0.144326131       0.638363219
                        -----------------------------------------
Total Dipole Moment    :      0.998155473      -0.143476239       0.622940711
                        -----------------------------------------
Magnitude (a.u.)       :      1.185307938
Magnitude (Debye)      :      3.012813347



--------------------
Rotational spectrum 
--------------------
 
Rotational constants in cm-1:            19.854304             0.233682             0.230964 
Rotational constants in MHz :        595217.045185          7005.609933          6924.116593 

Dipole components along the rotational axes: 
x,y,z [a.u.] :     1.032039     0.582955    -0.003807 
x,y,z [Debye]:     2.623234     1.481755    -0.009676 

 

-------------
DIPOLE MOMENT
-------------

Method             : MP2
Type of density    : Electron Density
Multiplicity       :   1
Level              : Unrelaxed density
Irrep              :   0
Energy             :     0.0000000000000000 Eh
Basis              : AO
                                X                 Y                 Z
Electronic contribution:      0.057010762       0.002730348      -0.024016830
Nuclear contribution   :      0.930808591      -0.144326131       0.638363219
                        -----------------------------------------
Total Dipole Moment    :      0.987819353      -0.141595782       0.614346390
                        -----------------------------------------
Magnitude (a.u.)       :      1.171860882
Magnitude (Debye)      :      2.978633646



--------------------
Rotational spectrum 
--------------------
 
Rotational constants in cm-1:            19.854304             0.233682             0.230964 
Rotational constants in MHz :        595217.045185          7005.609933          6924.116593 

Dipole components along the rotational axes: 
x,y,z [a.u.] :     1.021232     0.574742    -0.003742 
x,y,z [Debye]:     2.595766     1.460879    -0.009510 

 

-------------
DIPOLE MOMENT
-------------

Method             : MP2
Type of density    : Electron Density
Multiplicity       :   1
Level              : Relaxed density
Irrep              :   0
Energy             :     0.0000000000000000 Eh
Basis              : AO
                                X                 Y                 Z
Electronic contribution:      0.037974530       0.007091837      -0.044607242
Nuclear contribution   :      0.930808591      -0.144326131       0.638363219
                        -----------------------------------------
Total Dipole Moment    :      0.968783121      -0.137234294       0.593755977
                        -----------------------------------------
Magnitude (a.u.)       :      1.144517430
Magnitude (Debye)      :      2.909132116



--------------------
Rotational spectrum 
--------------------
 
Rotational constants in cm-1:            19.854304             0.233682             0.230964 
Rotational constants in MHz :        595217.045185          7005.609933          6924.116593 

Dipole components along the rotational axes: 
x,y,z [a.u.] :     1.001064     0.554778    -0.003544 
x,y,z [Debye]:     2.544502     1.410135    -0.009008 

 

Dipole moment calculation done in   0.1 sec 

Maximum memory used throughout the entire PROP-calculation: 2.8 MB

----------------------------------------------------------------------------
                           ORCA NUMERICAL FREQUENCIES
----------------------------------------------------------------------------

Number of atoms                ... 4
Central differences            ... used
Translation invariance         ... used
Number of displacements        ... 24 - 6
Numerical increment            ... 5.000e-03 bohr
IR-spectrum generation         ... on
Raman-spectrum generation      ... off
Surface Crossing Hessian       ... off

The output will be reduced. Please look at the following files:
SCF program output             ... >/home/vivek/mm/lab5/6-311/hf/dimer/dimer.lastscf
Integral program output        ... >/home/vivek/mm/lab5/6-311/hf/dimer/dimer.lastint
Gradient program output        ... >/home/vivek/mm/lab5/6-311/hf/dimer/dimer.lastgrad
Dipole moment program output   ... >/home/vivek/mm/lab5/6-311/hf/dimer/dimer.lastmom

	<< Calculating gradient on displaced geometry   1 (of  18) >>
	<< Calculating gradient on displaced geometry   2 (of  18) >>
	<< Calculating gradient on displaced geometry   3 (of  18) >>
	<< Calculating gradient on displaced geometry   4 (of  18) >>
	<< Calculating gradient on displaced geometry   5 (of  18) >>
	<< Calculating gradient on displaced geometry   6 (of  18) >>
	<< Calculating gradient on displaced geometry   7 (of  18) >>
	<< Calculating gradient on displaced geometry   8 (of  18) >>
	<< Calculating gradient on displaced geometry   9 (of  18) >>
	<< Calculating gradient on displaced geometry  10 (of  18) >>
	<< Calculating gradient on displaced geometry  11 (of  18) >>
	<< Calculating gradient on displaced geometry  12 (of  18) >>
	<< Calculating gradient on displaced geometry  13 (of  18) >>
	<< Calculating gradient on displaced geometry  14 (of  18) >>
	<< Calculating gradient on displaced geometry  15 (of  18) >>
	<< Calculating gradient on displaced geometry  16 (of  18) >>
	<< Calculating gradient on displaced geometry  17 (of  18) >>
	<< Calculating gradient on displaced geometry  18 (of  18) >>

-----------------------
VIBRATIONAL FREQUENCIES
-----------------------

Scaling factor for frequencies =  1.000000000  (already applied!)

     0:       0.00 cm**-1
     1:       0.00 cm**-1
     2:       0.00 cm**-1
     3:       0.00 cm**-1
     4:       0.00 cm**-1
     5:       0.00 cm**-1
     6:     125.15 cm**-1
     7:     209.83 cm**-1
     8:     469.18 cm**-1
     9:     590.15 cm**-1
    10:    4151.02 cm**-1
    11:    4201.03 cm**-1


------------
NORMAL MODES
------------

These modes are the Cartesian displacements weighted by the diagonal matrix
M(i,i)=1/sqrt(m[i]) where m[i] is the mass of the displaced atom
Thus, these vectors are normalized but *not* orthogonal

                  0          1          2          3          4          5    
      0       0.000000   0.000000   0.000000   0.000000   0.000000   0.000000
      1       0.000000   0.000000   0.000000   0.000000   0.000000   0.000000
      2       0.000000   0.000000   0.000000   0.000000   0.000000   0.000000
      3       0.000000   0.000000   0.000000   0.000000   0.000000   0.000000
      4       0.000000   0.000000   0.000000   0.000000   0.000000   0.000000
      5       0.000000   0.000000   0.000000   0.000000   0.000000   0.000000
      6       0.000000   0.000000   0.000000   0.000000   0.000000   0.000000
      7       0.000000   0.000000   0.000000   0.000000   0.000000   0.000000
      8       0.000000   0.000000   0.000000   0.000000   0.000000   0.000000
      9       0.000000   0.000000   0.000000   0.000000   0.000000   0.000000
     10       0.000000   0.000000   0.000000   0.000000   0.000000   0.000000
     11       0.000000   0.000000   0.000000   0.000000   0.000000   0.000000
                  6          7          8          9         10         11    
      0      -0.056577  -0.307140  -0.000677   0.026877   0.002219  -0.005351
      1       0.004372   0.010173  -0.030683   0.003964  -0.003141   0.008582
      2      -0.014958  -0.001211  -0.005457  -0.026188   0.017722  -0.048564
      3      -0.878856   0.636360   0.004695  -0.497261  -0.041560   0.105330
      4       0.016041  -0.003215   0.255904   0.004954   0.059683  -0.162194
      5       0.080961  -0.108089   0.044660   0.038532  -0.336933   0.917044
      6      -0.013191   0.382821   0.035355   0.200587  -0.909538  -0.335628
      7       0.076280  -0.098776   0.949353  -0.153769  -0.005656  -0.001307
      8      -0.446432   0.517802   0.166918   0.827881   0.226049   0.078701
      9       0.103907   0.253064  -0.001448  -0.011136   0.048244   0.017570
     10      -0.009271  -0.004762  -0.033266   0.003932   0.000275   0.000093
     11       0.034349  -0.020527  -0.005769  -0.019782  -0.011839  -0.004269


-----------
IR SPECTRUM
-----------

 Mode   freq       eps      Int      T**2         TX        TY        TZ
       cm**-1   L/(mol*cm) km/mol    a.u.
----------------------------------------------------------------------------
  6:    125.15   0.034007  171.86  0.084797  (-0.271370  0.026577 -0.102217)
  7:    209.83   0.019230   97.18  0.028600  ( 0.159159 -0.014507  0.055294)
  8:    469.18   0.054002  272.90  0.035918  ( 0.006741  0.186528  0.032858)
  9:    590.15   0.028196  142.49  0.014910  (-0.019959 -0.021037  0.118612)
 10:   4151.02   0.065061  328.79  0.004891  (-0.069030  0.004195 -0.010409)
 11:   4201.03   0.029912  151.16  0.002222  (-0.014607 -0.007108  0.044250)

* The epsilon (eps) is given for a Dirac delta lineshape.
** The dipole moment derivative (T) already includes vibrational overlap.

The first frequency considered to be a vibration is 6
The total number of vibrations considered is 6


--------------------------
THERMOCHEMISTRY AT 298.15K
--------------------------

Temperature         ...   298.15 K
Pressure            ...     1.00 atm
Total Mass          ...    40.01 AMU
Quasi RRHO          ...     True
Cut-Off Frequency   ...     1.00 cm^-1

Throughout the following assumptions are being made:
  (1) The electronic state is orbitally nondegenerate
  (2) There are no thermally accessible electronically excited states
  (3) Hindered rotations indicated by low frequency modes are not
      treated as such but are treated as vibrations and this may
      cause some error
  (4) All equations used are the standard statistical mechanics
      equations for an ideal gas
  (5) All vibrations are strictly harmonic

freq.     125.15  E(vib)   ...       0.43 
freq.     209.83  E(vib)   ...       0.34 
freq.     469.18  E(vib)   ...       0.16 
freq.     590.15  E(vib)   ...       0.10 
freq.    4151.02  E(vib)   ...       0.00 
freq.    4201.03  E(vib)   ...       0.00 

------------
INNER ENERGY
------------

The inner energy is: U= E(el) + E(ZPE) + E(vib) + E(rot) + E(trans)
    E(el)   - is the total energy from the electronic structure calculation
              = E(kin-el) + E(nuc-el) + E(el-el) + E(nuc-nuc)
    E(ZPE)  - the the zero temperature vibrational energy from the frequency calculation
    E(vib)  - the the finite temperature correction to E(ZPE) due to population
              of excited vibrational states
    E(rot)  - is the rotational thermal energy
    E(trans)- is the translational thermal energy

Summary of contributions to the inner energy U:
Electronic energy                ...   -200.54435851 Eh
Zero point energy                ...      0.02220385 Eh      13.93 kcal/mol
Thermal vibrational correction   ...      0.00164654 Eh       1.03 kcal/mol
Thermal rotational correction    ...      0.00141627 Eh       0.89 kcal/mol
Thermal translational correction ...      0.00141627 Eh       0.89 kcal/mol
-----------------------------------------------------------------------
Total thermal energy                   -200.51767557 Eh


Summary of corrections to the electronic energy:
(perhaps to be used in another calculation)
Total thermal correction                  0.00447909 Eh       2.81 kcal/mol
Non-thermal (ZPE) correction              0.02220385 Eh      13.93 kcal/mol
-----------------------------------------------------------------------
Total correction                          0.02668294 Eh      16.74 kcal/mol


--------
ENTHALPY
--------

The enthalpy is H = U + kB*T
                kB is Boltzmann's constant
Total thermal energy              ...   -200.51767557 Eh 
Thermal Enthalpy correction       ...      0.00094421 Eh       0.59 kcal/mol
-----------------------------------------------------------------------
Total Enthalpy                    ...   -200.51673136 Eh


Note: Only C1 symmetry has been detected, increase convergence thresholds 
      if your molecule has a higher symmetry. Symmetry factor of 1.0 is   
      used for the rotational entropy correction. 
 

Note: Rotational entropy computed according to Herzberg 
Infrared and Raman Spectra, Chapter V,1, Van Nostrand Reinhold, 1945 
Point Group:  C1, Symmetry Number:   1  
Rotational constants in cm-1:    19.854321     0.233682     0.230964 

Vibrational entropy computed according to the QRRHO of S. Grimme
Chem.Eur.J. 2012 18 9955 using a reference frequency of 100.0 cm-1


-------
ENTROPY
-------

The entropy contributions are T*S = T*(S(el)+S(vib)+S(rot)+S(trans))
     S(el)   - electronic entropy
     S(vib)  - vibrational entropy
     S(rot)  - rotational entropy
     S(trans)- translational entropy
The entropies will be listed as multiplied by the temperature to get
units of energy

Electronic entropy                ...      0.00000000 Eh      0.00 kcal/mol
Vibrational entropy               ...      0.00292857 Eh      1.84 kcal/mol
Rotational entropy                ...      0.00947817 Eh      5.95 kcal/mol
Translational entropy             ...      0.01757395 Eh     11.03 kcal/mol
-----------------------------------------------------------------------
Final entropy term                ...      0.02998069 Eh     18.81 kcal/mol

In case the symmetry of your molecule has not been determined correctly
or in case you have a reason to use a different symmetry number we print 
out the resulting rotational entropy values for sn=1,12:

 non-linear molecules -----------------------------------
|  sn= 1 | S(rot)=       0.00947817 Eh      5.95 kcal/mol|
|  sn= 2 | S(rot)=       0.00882372 Eh      5.54 kcal/mol|
|  sn= 3 | S(rot)=       0.00844088 Eh      5.30 kcal/mol|
|  sn= 4 | S(rot)=       0.00816926 Eh      5.13 kcal/mol|
|  sn= 5 | S(rot)=       0.00795857 Eh      4.99 kcal/mol|
|  sn= 6 | S(rot)=       0.00778643 Eh      4.89 kcal/mol|
|  sn= 7 | S(rot)=       0.00764088 Eh      4.79 kcal/mol|
|  sn= 8 | S(rot)=       0.00751480 Eh      4.72 kcal/mol|
|  sn= 9 | S(rot)=       0.00740359 Eh      4.65 kcal/mol|
|  sn=10 | S(rot)=       0.00730412 Eh      4.58 kcal/mol|
|  sn=11 | S(rot)=       0.00721413 Eh      4.53 kcal/mol|
|  sn=12 | S(rot)=       0.00713197 Eh      4.48 kcal/mol|
 linear molecules ---------------------------------------
|  Dinfh | S(rot)=       0.00670950 Eh      4.21 kcal/mol|
|  Cinfv | S(rot)=       0.00736395 Eh      4.62 kcal/mol|
 --------------------------------------------------------


-------------------
GIBBS FREE ENERGY
-------------------

The Gibbs free energy is G = H - T*S

Total enthalpy                    ...   -200.51673136 Eh 
Total entropy correction          ...     -0.02998069 Eh    -18.81 kcal/mol
-----------------------------------------------------------------------
Final Gibbs free energy         ...   -200.54671205 Eh

For completeness - the Gibbs free energy minus the electronic energy
G-E(el)                           ...     -0.00235355 Eh     -1.48 kcal/mol



--------------------------------
SUGGESTED CITATIONS FOR THIS RUN
--------------------------------

Below you find a list of papers that are relevant to this ORCA run
We neither can nor want to force you to cite these papers, but we appreciate if you do
You receive ORCA, which is the product of decades of hard work by many enthusiastic individuals, for free
The only thing we kindly ask in return is that you cite our papers,
We deeply appreciate it, if you show your appreciation for ORCA by not just citing the generic ORCA reference.

Please note that relegating all ORCA citations to the supporting information does *not* help us.
SI sections are not indexed - citations you put there will not count into any citation statistics
But we need these citations in order to attract the funding resources that allow us to do what we are doing

Therefore, if you are a happy ORCA user, please consider citing a few of the papers listed below in the main body of your paper

In addition to the list printed below, the program has created the file /home/vivek/mm/lab5/6-311/hf/dimer/dimer.bibtex that contains the list in bibtex format
You can import this file easily into all common literature databanks and citation aid programs


List of essential papers. We consider these as the minimum necessary citations

  1. Neese, F.
     Software update: the ORCA program system, version 6.0
     WIRES Comput. Molec. Sci. 2025 15(1), e70019
     doi.org/10.1002/wcms.7019

List of papers to cite with high priority. The work reported in these papers was absolutely
necessary for this run to complete.
Our perspective: the developers of density functionals and basis sets usually get cited in chemistry papers
Good! But without the algorithms to do something with them, the functionals or basis sets would not do anything.
Hence, in our opinion, the algorithm design and method developments papers are equally worthy of getting cited

  1. Neese, F.
     The SHARK Integral Generation and Digestion System
     J. Comp. Chem. 2022 44(3), 381
     doi.org/10.1002/jcc.26942

List of suggested additional citations. These are papers that are important in the 'surrounding' of 
of this run, or papers that preceded the highly important papers. If you like your results we are grateful for a citation.

  1. Neese, F.
     The ORCA program system
     WIRES Comput. Molec. Sci. 2012 2(1), 73-78
     doi.org/10.1002/wcms.81
  2. Neese, F.
     Software update: the ORCA program system, version 4.0
     WIRES Comput. Molec. Sci. 2018 8(1), 1-6
     doi.org/10.1002/wcms.1327
  3. Neese, F.; Wennmohs, F.; Becker, U.; Riplinger, C.
     The ORCA quantum chemistry program package
     J. Chem. Phys. 2020 152(22), 224108
     doi.org/10.1063/5.0004608
  4. Neese, F.
     Software update: The ORCA program system—Version 5.0
     WIRES Comput. Molec. Sci. 2022 12(1), e1606
     doi.org/10.1002/wcms.1606

List of optional additional citations

  1. Neese, F.
     Approximate second-order SCF convergence for spin unrestricted wavefunctions
     Chem. Phys. Lett. 2000 325(1-3), 93-98
     doi.org/10.1016/s0009-2614(00)00662-x

Timings for individual modules:

Sum of individual times          ...      334.958 sec (=   5.583 min)
Startup calculation              ...        4.887 sec (=   0.081 min)   1.5 %
SCF iterations                   ...       53.393 sec (=   0.890 min)  15.9 %
Property calculations            ...        0.173 sec (=   0.003 min)   0.1 %
MP2 module                       ...       55.396 sec (=   0.923 min)  16.5 %
Geometry relaxation              ...        4.312 sec (=   0.072 min)   1.3 %
Numerical frequency calculation  ...      216.795 sec (=   3.613 min)  64.7 %
                             ****ORCA TERMINATED NORMALLY****
TOTAL RUN TIME: 0 days 0 hours 5 minutes 36 seconds 965 msec
