
                                 *****************
                                 * O   R   C   A *
                                 *****************

                                            #,                                       
                                            ###                                      
                                            ####                                     
                                            #####                                    
                                            ######                                   
                                           ########,                                 
                                     ,,################,,,,,                         
                               ,,#################################,,                 
                          ,,##########################################,,             
                       ,#########################################, ''#####,          
                    ,#############################################,,   '####,        
                  ,##################################################,,,,####,       
                ,###########''''           ''''###############################       
              ,#####''   ,,,,##########,,,,          '''####'''          '####       
            ,##' ,,,,###########################,,,                        '##       
           ' ,,###''''                  '''############,,,                           
         ,,##''                                '''############,,,,        ,,,,,,###''
      ,#''                                            '''#######################'''  
     '                                                          ''''####''''         
             ,#######,   #######,   ,#######,      ##                                
            ,#'     '#,  ##    ##  ,#'     '#,    #''#        ,####,    ,#,          
            ##       ##  ##   ,#'  ##            #'  '#       #'       ,# #          
            ##       ##  #######   ##           ,######,      #####,      #          
            '#,     ,#'  ##    ##  '#,     ,#' ,#      #,     #,   #      #          
             '#######'   ##     ##  '#######'  #'      '#     '####' #    #          



                #########################################################
                #                        -***-                          #
                #          Department of theory and spectroscopy        #
                #                                                       #
                #                      Frank Neese                      #
                #                                                       #
                #     Directorship, Architecture, Infrastructure        #
                #                    SHARK, DRIVERS                     #
                #        Core code/Algorithms in most modules           #
                #                                                       #
                #        Max Planck Institute fuer Kohlenforschung      #
                #                Kaiser Wilhelm Platz 1                 #
                #                 D-45470 Muelheim/Ruhr                 #
                #                      Germany                          #
                #                                                       #
                #                  All rights reserved                  #
                #                        -***-                          #
                #########################################################


                         Program Version 6.1.0  -  RELEASE   -
                                (GIT: $679e74b$)
                          ($2025-06-10 18:02:51 +0200$)


 With contributions from (in alphabetic order):
[Max-Planck-Institut fuer Kohlenforschung]                               
  Daniel Aravena         : Magnetic Suceptibility                        
  Michael Atanasov       : Ab Initio Ligand Field Theory (pilot matlab implementation)
  Alexander A. Auer      : GIAO ZORA, VPT2 properties, NMR spectrum      
  Ute Becker             : All parallelization in ORCA, NUMFREQ, NUMCALC 
  Giovanni Bistoni       : ED, misc. LED, open-shell LED, HFLD           
  Dmytro Bykov           : pre 5.0 version of the SCF Hessian            
  Marcos Casanova-Páez   : Triplet and SCS-CIS(D). UHF-(DLPNO)-IP/EA/STEOM-CCSD. UHF-CVS-IP/STEOM-CCSD   
  Vijay G. Chilkuri      : MRCI spin determinant printing, contributions to CSF-ICE 
  Pauline Colinet        : FMM embedding                                 
  Dipayan Datta          : RHF DLPNO-CCSD density                        
  Achintya Kumar Dutta   : EOM-CC, STEOM-CC                              
  Nicolas Foglia         : Exact transition moments, OPA infrastructure, MCD improvements    
  Dmitry Ganyushin       : Spin-Orbit,Spin-Spin,Magnetic field MRCI      
  Miquel Garcia-Rates    : C-PCM and meta-GGA Hessian, CCSD/C-PCM, Gaussian charge scheme 
  Tiago L. C. Gouveia    : GS-ROHF, GS-ROCIS                             
  Yang Guo               : DLPNO-NEVPT2, F12-NEVPT2, CIM, IAO-localization        
  Andreas Hansen         : Spin unrestricted coupled pair/coupled cluster methods 
  Ingolf Harden          : AUTO-CI MPn and infrastructure                
  Benjamin Helmich-Paris : MC-RPA, TRAH-(SCF,CASSCF), AVAS, COSX integrals, SCF dyn. polar., MC-PDFT, srDFT 
  Lee Huntington         : MR-EOM, pCC                                   
  Robert Izsak           : Overlap fitted RIJCOSX, COSX-SCS-MP3, EOM     
  Riya Kayal             : Wick's Theorem for AUTO-CI, AUTO-CI UHF-CCSDT 
  Emily Kempfer          : AUTO-CI RHF CISDT and CCSDT, approximate NEVPT4
  Christian Kollmar      : KDIIS, OOCD, Brueckner-CCSD(T), CCSD density, CASPT2, CASPT2-K, improved NEVPT2 
  Axel Koslowski         : Symmetry handling                             
  Simone Kossmann        : meta-GGA functionals, TD-DFT gradient, OOMP2, (MP2 Hessian; deprecated post 5.0) 
  Lucas Lang             : DCDCAS, Hyperfine gauge corrections, ICE-SOC+SSC
  Marvin Lechner         : AUTO-CI (C++ implementation), FIC-MRCC        
  Spencer Leger          : CASSCF response                               
  Dagmar Lenk            : GEPOL surface, SMD, ORCA-2-JSON               
  Dimitrios Liakos       : Extrapolation schemes; Compound Job, Property file
  Dimitrios Manganas     : Further ROCIS development; embedding schemes. LFT, Crystal Embedding 
  Dimitrios Pantazis     : SARC Basis sets                               
  Anastasios Papadopoulos: AUTO-CI, single reference methods and gradients 
  Taras Petrenko         : pre 6.0 DFT Hessian and TD-DFT gradient,  ECA, NRVS 
  Petra Pikulova         : Analytic Raman intensities                    
  Peter Pinski           : DLPNO-MP2, DLPNO-MP2 Gradient                 
  Shashank Vittal Rao    : ES-AILFT, MagRelax                            
  Christoph Reimann      : Effective Core Potentials                     
  Marius Retegan         : Local ZFS, SOC                                
  Christoph Riplinger    : Optimizer, TS searches, QM/MM, DLPNO-CCSD(T), (RO)-DLPNO pert. Triples 
  Michael Roemelt        : Original ROCIS implementation, recursive CI coupling coefficients
  Masaaki Saitow         : Open-shell DLPNO-CCSD energy and density      
  Barbara Sandhoefer     : DKH picture change effects                    
  Yorick L. A. Schmerwitz: GMF and freeze-and-release deltaSCF, NEB S-IDPP initial path                    
  Kantharuban Sivalingam : CASSCF convergence/infrastructure, NEVPT2, NEVPT3, NEVPT4(SD), FIC-MRCI and CEPA variants
  Bernardo de Souza      : ESD, SOC TD-DFT                               
  Georgi L. Stoychev     : AutoAux, RI-MP2 NMR, DLPNO-MP2 response, X2C  
  Van Anh Tran           : RI-MP2 g-tensors                              
  Willem Van den Heuvel  : Paramagnetic NMR                              
  Zikuan Wang            : NOTCH, Electric field optimization            
  Frank Wennmohs         : Technical directorship and infrastructure     
  Hang Xu                : AUTO-CI-Response properties                   
                                                                         
[FACCTs GmbH]                                                            
  Markus Bursch, Nicolas Foglia, Miquel Garcia-Rates, Ingolf Harden, Hagen Neugebauer, Anastasios Papadopoulos, 
  Christoph Riplinger, Bernardo de Souza, Georgi L. Stoychev                                                    
                                                                 
  APM, various basis sets, CI-OPT, improved COSX, DLPNO-Multilevel,           
  DOCKER, DRACO, updates on ESD, Fragmentator, GOAT, IRC, LR-CPCM, L-BFGS, MBIS, meta-GGA TD-DFT gradient, ML-optimized integration grids, 
  MM, NACMEs, nearIR, NEB, NEB-TS, NL-DFT gradient (VV10), 2- and 3-layer-ONIOM, interface openCOSMO-RS, QMMM,   
  Crystal-QMMM, RESP, rigid body optimization, SF, symmetry and pop. for TD-DFT, various functionals, SOLVATOR                                   
                                                                         
[Other institutions]                                                     
  V. Asgeirsson          : NEB                                           
  Christoph Bannwarth    : sTDA-DFT, sTD-DFT, PBEh-3c, B97-3c, D3        
  Giovanni Bistoni       : ETS/NOCV, ADLD/ADEX, COVALED                  
  Martin Brehm           : Molecular dynamics                            
  Ronald Cardenas        : ETS/NOCV                                      
  Martina Colucci        : COVALED                                       
  Sebastian Ehlert       : rSCAN, r2SCAN, r2SCAN-3c, D4, dhf basis sets  
  Marvin Friede          : D4 for Fr, Ra, Ac-Lr                          
  Lars Goerigk           : TD-DFT with DH, B97 family of functionals     
  Stefan Grimme          : VdW corrections, initial TS optimization, DFT functionals, gCP, sTDA/sTD-DF 
  Waldemar Hujo          : DFT-NL                                        
  H. Jonsson             : NEB                                           
  Holger Kruse           : gCP                                           
  Marcel Mueller         : wB97X-3c, vDZP basis set                      
  Hagen Neugebauer       : wr2SCAN, Native XTB                           
  Gianluca Regni         : ADLD/ADEX                                     
  Tobias Risthaus        : pre 6.0 range-separated hybrid DFT and stability analysis
  Lukas Wittmann         : regularized MP2, r2SCAN double-hybrids, wr2SCAN        
                                                                         
We gratefully acknowledge several colleagues who have allowed us to      
interface, adapt or use parts of their codes:                            
  Ed Valeev, F. Pavosevic, A. Kumar             : LibInt (2-el integral package), F12 methods 
  Garnet Chan, S. Sharma, J. Yang, R. Olivares  : DMRG                   
  Ulf Ekstrom                                   : XCFun DFT Library      
  Mihaly Kallay                                 : mrcc  (arbitrary order and MRCC methods)
  Frank Weinhold                                : gennbo (NPA and NBO analysis)           
  Simon Mueller                                 : openCOSMO-RS                            
  Christopher J. Cramer and Donald G. Truhlar   : smd solvation model                     
  S Lehtola, MJT Oliveira, MAL Marques          : LibXC Library                           
  Liviu Ungur et al                             : ANISO software                          


 Your calculation uses the libint2 library for the computation of 2-el integrals
 For citations please refer to: http://libint.valeyev.net

 Your ORCA version has been built with support for libXC version: 7.0.0
 For citations please refer to: https://libxc.gitlab.io

 This ORCA versions uses:
   CBLAS   interface :  Fast vector & matrix operations
   LAPACKE interface :  Fast linear algebra routines
   SCALAPACK package :  Parallel linear algebra routines
   Shared memory     :  Shared parallel matrices
   BLAS/LAPACK       :  OpenBLAS 0.3.29  USE64BITINT DYNAMIC_ARCH NO_AFFINITY Haswell SINGLE_THREADED
        Core in use  :  Haswell
   Copyright (c) 2011-2014, The OpenBLAS Project


  ***********************************
  * Starting time: Thu Aug 14 01:36:19 2025
  * Host name:     CHEMLAB02
  * Process ID:    1545088
  * Working dir.:  /home/vivek/mm/lab5/hf/dimer
  ***********************************



***************************************
The coordinates will be read from file: dimer-input-coordinates.xyz
***************************************


================================================================================

----- Orbital basis set information -----
Your calculation utilizes the basis: 6-31G**
   H-He, Li-Ne : W. J. Hehre, R. Ditchfield and J.A. Pople, J. Chem. Phys. 56, 2257 (1972).
                 Note: He and Ne are unpublished basis sets taken from the Gaussian program.
                 Note: Li and B from J. D. Dill and J. A. Pople, J. Chem. Phys. 62, 2921 (1975).
   Na - Ar     : M. M. Francl, W. J. Pietro, W. J. Hehre, J. S. Binkley, M. S. Gordon, 
                 D. J. DeFrees and J. A. Pople, J. Chem. Phys. 77, 3654 (1982).
   K - Zn      : V. A. Rassolov, J. A. Pople, M. A. Ratner, and T. L. Windus, J. Chem. Phys. 109, 1223 (1998).

================================================================================
                                        WARNINGS
                       Please study these warnings very carefully!
================================================================================


WARNING: The frozen-core approximation for MP2-gradient calculations is turned on by default.

WARNING: Geometry Optimization
  ===> : Switching off AutoStart
         For restart on a previous wavefunction, please use MOREAD

WARNING: Post HF methods need fully converged wavefunctions
  ===> : Setting SCFConvForced true
         You can overwrite this default with %scf ConvForced false 


================================================================================
                                       INPUT FILE
================================================================================
NAME = dimer.inp
|  1> ! MP2 6-31G** opt numfreq
|  2> 
|  3> * xyzfile 0 1 dimer-input-coordinates.xyz
|  4> 
|  5>                          ****END OF INPUT****
================================================================================

                       *****************************
                       * Geometry Optimization Run *
                       *****************************

Geometry optimization settings:
Update method            Update   .... BFGS
Choice of coordinates    CoordSys .... (2022) Redundant Internals
Initial Hessian          InHess   .... Almloef's Model
Max. no of cycles        MaxIter  .... 50

Convergence Tolerances:
Energy Change            TolE     ....  5.0000e-06 Eh
Max. Gradient            TolMAXG  ....  3.0000e-04 Eh/bohr
RMS Gradient             TolRMSG  ....  1.0000e-04 Eh/bohr
Max. Displacement        TolMAXD  ....  4.0000e-03 bohr
RMS Displacement         TolRMSD  ....  2.0000e-03 bohr
Strict Convergence                .... False

------------------------------------------------------------------------------
                        ORCA OPTIMIZATION COORDINATE SETUP
------------------------------------------------------------------------------

The optimization will be done in redundant internal coordinates (2022)
Making redundant internal coordinates   ...  (2022 redundants) done
Evaluating the initial hessian          ...  (Almloef) done
Evaluating the coordinates              ...  done
Calculating the B-matrix                .... done
Calculating the G-matrix                .... done
The number of degrees of freedom        ....    9

    -----------------------------------------------------------------
                    Redundant Internal Coordinates


    -----------------------------------------------------------------
         Definition                    Initial Value    Approx d2E/dq
    -----------------------------------------------------------------
      1. B(H   1,F   0)                  0.9392         0.521463   
      2. B(F   2,H   1)                  2.7786         0.010000   
      3. B(F   2,F   0)                  2.9930         0.010000   
      4. B(H   3,H   1)                  2.8871         0.010000   
      5. B(H   3,F   0)                  2.7942         0.010000   
      6. B(H   3,F   2)                  0.9396         0.520787   
      7. A(H   1,F   0,F   2)           67.8574         0.155504   
      8. A(F   0,F   2,H   3)           68.8100         0.155484   
      9. D(H   3,F   2,F   0,H   1)   -179.9185         0.010000   
    -----------------------------------------------------------------

Number of atoms                         .... 4
Number of degrees of freedom            .... 9


         *************************************************************
         *                GEOMETRY OPTIMIZATION CYCLE   1            *
         *************************************************************
---------------------------------
CARTESIAN COORDINATES (ANGSTROEM)
---------------------------------
  F     -5.326007    0.995221    0.193476
  H     -4.607654    0.686608    0.713905
  F     -2.865556    2.657654   -0.181054
  H     -3.575437    2.978537   -0.706303

----------------------------
CARTESIAN COORDINATES (A.U.)
----------------------------
  NO LB      ZA    FRAG     MASS         X           Y           Z
   0 F     9.0000    0    18.998  -10.064695    1.880695    0.365617
   1 H     1.0000    0     1.008   -8.707204    1.297501    1.349085
   2 F     9.0000    0    18.998   -5.415116    5.022238   -0.342142
   3 H     1.0000    0     1.008   -6.756597    5.628619   -1.334719

--------------------------------
INTERNAL COORDINATES (ANGSTROEM)
--------------------------------
 F      0   0   0     0.000000000000     0.00000000     0.00000000
 H      1   0   0     0.939212095546     0.00000000     0.00000000
 F      2   1   0     2.778647042609    93.89749439     0.00000000
 H      3   2   1     0.939565562295    87.05502300     0.07612884

---------------------------
INTERNAL COORDINATES (A.U.)
---------------------------
 F      0   0   0     0.000000000000     0.00000000     0.00000000
 H      1   0   0     1.774853642247     0.00000000     0.00000000
 F      2   1   0     5.250881933362    93.89749439     0.00000000
 H      3   2   1     1.775521597602    87.05502300     0.07612884

---------------------
BASIS SET INFORMATION
---------------------
There are 2 groups of distinct atoms

 Group   1 Type F   : 10s4p1d contracted to 3s2p1d pattern {631/31/1}
 Group   2 Type H   : 4s1p contracted to 2s1p pattern {31/1}

Atom   0F    basis set group =>   1
Atom   1H    basis set group =>   2
Atom   2F    basis set group =>   1
Atom   3H    basis set group =>   2
------------------------------------------------------------------------------
                             ORCA STARTUP CALCULATIONS
------------------------------------------------------------------------------
------------------------------------------------------------------------------
                   ___                                                        
                  /   \      - P O W E R E D   B Y -                         
                 /     \                                                     
                 |  |  |   _    _      __       _____    __    __             
                 |  |  |  | |  | |    /  \     |  _  \  |  |  /  |          
                  \  \/   | |  | |   /    \    | | | |  |  | /  /          
                 / \  \   | |__| |  /  /\  \   | |_| |  |  |/  /          
                |  |  |   |  __  | /  /__\  \  |    /   |      \           
                |  |  |   | |  | | |   __   |  |    \   |  |\   \          
                \     /   | |  | | |  |  |  |  | |\  \  |  | \   \       
                 \___/    |_|  |_| |__|  |__|  |_| \__\ |__|  \__/        
                                                                              
                      - O R C A' S   B I G   F R I E N D -                    
                                      &                                       
                       - I N T E G R A L  F E E D E R -                       
                                                                              
 v1 FN, 2020, v2 2021, v3 2022-2024                                           
------------------------------------------------------------------------------


----------------------
SHARK INTEGRAL PACKAGE
----------------------

Number of atoms                             ...      4
Number of basis functions                   ...     38
Number of shells                            ...     18
Maximum angular momentum                    ...      2
Integral batch strategy                     ... SHARK/LIBINT Hybrid
RI-J (if used) integral strategy            ... SPLIT-RIJ (Revised 2003 algorithm where possible)
Printlevel                                  ...      1
Contraction scheme used                     ... SEGMENTED contraction
Prescreening option                         ... SCHWARTZ
   Thresh                                   ... 2.500e-11
   Tcut                                     ... 2.500e-12
   Tpresel                                  ... 2.500e-12 
Coulomb Range Separation                    ... NOT USED
Exchange Range Separation                   ... NOT USED
Multipole approximations                    ... NOT USED
Finite Nucleus Model                        ... NOT USED
CABS basis                                  ... NOT available
Auxiliary Coulomb fitting basis             ... NOT available
Auxiliary J/K fitting basis                 ... NOT available
Auxiliary Correlation fitting basis         ... NOT available
Auxiliary 'external' fitting basis          ... NOT available

Checking pre-screening integrals            ... done (  0.0 sec) Dimension = 18
   => SHARK Basis and OBASIS are compatible. Storing Pre-screening
Shell pair information
Shell pair cut-off parameter TPreSel        ...   2.5e-12
Total number of shell pairs                 ...       171
Shell pairs after pre-screening             ...       166
Total number of primitive shell pairs       ...       868
Primitive shell pairs kept                  ...       660
          la=0 lb=0:     52 shell pairs
          la=1 lb=0:     58 shell pairs
          la=1 lb=1:     21 shell pairs
          la=2 lb=0:     20 shell pairs
          la=2 lb=1:     12 shell pairs
          la=2 lb=2:      3 shell pairs

Checking whether 4 symmetric matrices of dimension 38 fit in memory
:Max Core in MB      =   4096.00
 MB in use           =      1.40
 MB left             =   4094.60
 MB needed           =      0.02
 Data fit in memory  = YES
Calculating Nuclear repulsion               ... done (  0.0 sec) ENN=     28.062928558637 Eh

Diagonalization of the overlap matrix:
Smallest eigenvalue                        ... 4.809e-02
Time for diagonalization                   ...    0.000 sec
Threshold for overlap eigenvalues          ... 1.000e-07
Number of eigenvalues below threshold      ... 0
Time for construction of square roots      ...    0.000 sec
Total time needed                          ...    0.000 sec

-------------------
DFT GRID GENERATION
-------------------

General Integration Accuracy     IntAcc      ... 4.388
Radial Grid Type                 RadialGrid  ... OptM3 with GC (2021)
Angular Grid (max. ang.)         AngularGrid ... 4 (Lebedev-302)
Angular grid pruning method      GridPruning ... 4 (adaptive)
Weight generation scheme         WeightScheme... mBecke (2022)
Basis function cutoff            BFCut       ... 1.0000e-11
Integration weight cutoff        WCut        ... 1.0000e-14
Partially contracted basis set               ... off
Rotationally invariant grid construction     ... off
Angular grids for H and He will be reduced by one unit

Total number of grid points                  ...    18933
Total number of batches                      ...      298
Average number of points per batch           ...       63
Average number of grid points per atom       ...     4733
Grids setup in   0.0 sec
Initializing property integral containers    ... done (  0.0 sec)

SHARK setup successfully completed in   0.1 seconds

Maximum memory used throughout the entire STARTUP-calculation: 7.7 MB
-------------------------------------------------------------------------------
                                 ORCA GUESS
                   Start orbitals & Density for SCF / CASSCF
-------------------------------------------------------------------------------

------------
SCF SETTINGS
------------
Hamiltonian:
 Ab initio Hamiltonian  Method          .... Hartree-Fock(GTOs)


General Settings:
 Integral files         IntName         .... dimer
 Hartree-Fock type      HFTyp           .... RHF
 Total Charge           Charge          ....    0
 Multiplicity           Mult            ....    1
 Number of Electrons    NEL             ....   20
 Basis Dimension        Dim             ....   38
 Nuclear Repulsion      ENuc            ....     28.0629285586 Eh

Convergence Acceleration:
 AO-DIIS                CNVDIIS         .... on
   Start iteration      DIISMaxIt       ....    12
   Startup error        DIISStart       ....  0.200000
   # of expansion vecs  DIISMaxEq       ....     5
   Bias factor          DIISBfac        ....   1.050
   Max. coefficient     DIISMaxC        ....  10.000
 MO-DIIS                CNVKDIIS        .... off
 Trust-Rad. Augm. Hess. CNVTRAH         .... auto
   Auto Start mean grad. ratio tolernc. ....  1.125000
   Auto Start start iteration           ....    50
   Auto Start num. interpolation iter.  ....    10
   Max. Number of Micro iterations      ....    24
   Max. Number of Macro iterations      .... Maxiter - #DIIS iter
   Number of Davidson start vectors     ....     2
   Converg. threshold    (grad. norm)   ....   1.000e-05
   Grad. Scal. Fac. for Micro threshold ....   0.100
   Minimum threshold for Micro iter.    ....   1.000e-02
   NR start threshold (gradient norm)   ....   1.000e-04
   Initial trust radius                 ....   0.400
   Minimum AH scaling param. (alpha)    ....   1.000
   Maximum AH scaling param. (alpha)    .... 1000.000
   Quad. conv. algorithm                .... NR
   White noise on init. David. guess    .... on
   Maximum white noise                  ....   0.010
   Pseudo random numbers                .... off
   Inactive MOs                         .... canonical
   Orbital update algorithm             .... Taylor
   Preconditioner                       .... Diag
   Full preconditioner red. dimension   ....   250
 SOSCF                 CNVSOSCF           .... on
   Start iteration     SOSCFMaxIt         ....   150
   Startup grad/error  SOSCFStart         ....  0.003300
   Hessian update      SOSCFHessUp        .... L-BFGS
   Autom. constraints  SOSCFAutoConstrain .... off
 Level Shifting         CNVShift        .... on
   Level shift para.    LevelShift      ....    0.2500
   Turn off err/grad.   ShiftErr        ....    0.0010
 Zerner damping         CNVZerner       .... off
 Static damping         CNVDamp         .... on
   Fraction old density DampFac         ....    0.7000
   Max. Damping (<1)    DampMax         ....    0.9800
   Min. Damping (>=0)   DampMin         ....    0.0000
   Turn off err/grad.   DampErr         ....    0.1000

SCF Procedure:
 Maximum # iterations   MaxIter         ....   125
 SCF integral mode      SCFMode         .... Direct
   Integral package                     .... SHARK and LIBINT hybrid scheme
 Reset frequency        DirectResetFreq ....    20
 Integral Threshold     Thresh          ....  2.500e-11 Eh
 Primitive CutOff       TCut            ....  2.500e-12 Eh

Convergence Tolerance:
 Convergence Check Mode ConvCheckMode   .... Total+1el-Energy
 Convergence forced     ConvForced      .... 1
 Energy Change          TolE            ....  1.000e-08 Eh
 1-El. energy change                    ....  1.000e-05 Eh
 Orbital Gradient       TolG            ....  1.000e-05
 Orbital Rotation angle TolX            ....  1.000e-05
 DIIS Error             TolErr          ....  5.000e-07

------------------------------
INITIAL GUESS: MODEL POTENTIAL
------------------------------
Loading Hartree-Fock densities                     ... done
Calculating cut-offs                               ... done
Initializing the effective Hamiltonian             ... done
Setting up the integral package (SHARK)            ... done
Starting the Coulomb interaction                   ... done (   0.0 sec)
Making the grid                                    ... done (   0.0 sec)
Mapping shells                                     ... done
Starting the XC term evaluation                    ... done (   0.0 sec)
Transforming the Hamiltonian                       ... done (   0.0 sec)
Diagonalizing the Hamiltonian                      ... done (   0.0 sec)
Back transforming the eigenvectors                 ... done (   0.0 sec)
Now organizing SCF variables                       ... done
                      ------------------
                      INITIAL GUESS DONE (   0.0 sec)
                      ------------------
             **** ENERGY FILE WAS UPDATED (dimer.en.tmp) ****
Finished Guess after   0.0 sec
Maximum memory used throughout the entire GUESS-calculation: 3.7 MB

-------------------------------------------------------------------------------------------
                                      ORCA LEAN-SCF
                              memory conserving SCF solver
-------------------------------------------------------------------------------------------

----------------------------------------D-I-I-S--------------------------------------------
Iteration    Energy (Eh)           Delta-E    RMSDP     MaxDP     DIISErr   Damp  Time(sec)
-------------------------------------------------------------------------------------------
               ***  Starting incremental Fock matrix formation  ***
    1    -199.9592252412765561     0.00e+00  4.19e-03  3.77e-02  2.02e-01  0.700   0.0
    2    -199.9830606960470050    -2.38e-02  2.77e-03  2.59e-02  1.22e-01  0.700   0.0
                               ***Turning on AO-DIIS***
    3    -199.9962553338106090    -1.32e-02  1.12e-03  1.13e-02  6.89e-02  0.700   0.0
    4    -200.0044093333426076    -8.15e-03  2.50e-03  2.49e-02  4.82e-02  0.000   0.0
    5    -200.0224854900768605    -1.81e-02  2.53e-04  2.02e-03  5.06e-03  0.000   0.0
                              *** Initializing SOSCF ***
---------------------------------------S-O-S-C-F--------------------------------------
Iteration    Energy (Eh)           Delta-E    RMSDP     MaxDP     MaxGrad    Time(sec)
--------------------------------------------------------------------------------------
    6    -200.0225390713902129    -5.36e-05  1.25e-04  8.83e-04  1.60e-03     0.0
               *** Restarting incremental Fock matrix formation ***
    7    -200.0225482707102174    -9.20e-06  5.09e-05  2.92e-04  3.83e-04     0.0
    8    -200.0225493020618615    -1.03e-06  3.61e-05  1.85e-04  1.48e-04     0.0
    9    -200.0225495042676016    -2.02e-07  6.10e-06  4.15e-05  4.40e-05     0.0
   10    -200.0225495155133331    -1.12e-08  7.14e-07  4.74e-06  3.63e-06     0.0
   11    -200.0225495158125000    -2.99e-10  2.02e-07  1.36e-06  1.11e-06     0.0
                 **** Energy Check signals convergence ****

               *****************************************************
               *                     SUCCESS                       *
               *           SCF CONVERGED AFTER  11 CYCLES          *
               *****************************************************

             **** ENERGY FILE WAS UPDATED (dimer.en.tmp) ****

----------------
TOTAL SCF ENERGY
----------------

Total Energy       :       -200.02254951599321 Eh           -5442.89028 eV

Components:
Nuclear Repulsion  :         28.06292855863747 Eh             763.63111 eV
Electronic Energy  :       -228.08547807463069 Eh           -6206.52139 eV
One Electron Energy:       -336.78583288231926 Eh           -9164.40842 eV
Two Electron Energy:        108.70035480768857 Eh            2957.88703 eV

Virial components:
Potential Energy   :       -399.94177371737283 Eh          -10882.96894 eV
Kinetic Energy     :        199.91922420137959 Eh            5440.07866 eV
Virial Ratio       :          2.00051683531199

---------------
SCF CONVERGENCE
---------------

  Last Energy change         ...    2.9917e-10  Tolerance :   1.0000e-08
  Last MAX-Density change    ...    1.3603e-06  Tolerance :   1.0000e-07
  Last RMS-Density change    ...    2.0187e-07  Tolerance :   5.0000e-09
  Last DIIS Error            ...    1.5964e-03  Tolerance :   5.0000e-07
  Last Orbital Gradient      ...    1.1059e-06  Tolerance :   1.0000e-05
  Last Orbital Rotation      ...    1.7923e-06  Tolerance :   1.0000e-05


----------------
ORBITAL ENERGIES
----------------

  NO   OCC          E(Eh)            E(eV) 
   0   2.0000     -26.276827      -715.0288 
   1   2.0000     -26.276194      -715.0116 
   2   2.0000      -1.575499       -42.8715 
   3   2.0000      -1.572715       -42.7957 
   4   2.0000      -0.739758       -20.1298 
   5   2.0000      -0.737638       -20.0722 
   6   2.0000      -0.636385       -17.3169 
   7   2.0000      -0.629639       -17.1333 
   8   2.0000      -0.627457       -17.0740 
   9   2.0000      -0.620451       -16.8833 
  10   0.0000       0.205135         5.5820 
  11   0.0000       0.243102         6.6151 
  12   0.0000       0.986241        26.8370 
  13   0.0000       1.048788        28.5390 
  14   0.0000       1.436427        39.0872 
  15   0.0000       1.476101        40.1668 
  16   0.0000       1.493770        40.6476 
  17   0.0000       1.531336        41.6698 
  18   0.0000       1.538502        41.8648 
  19   0.0000       1.582784        43.0697 
  20   0.0000       1.878416        51.1143 
*Only the first 10 virtual orbitals were printed.

                    ********************************
                    * MULLIKEN POPULATION ANALYSIS *
                    ********************************

-----------------------
MULLIKEN ATOMIC CHARGES
-----------------------
   0 F :   -0.428713
   1 H :    0.428539
   2 F :   -0.428643
   3 H :    0.428817
Sum of atomic charges:    0.0000000

--------------------------------
MULLIKEN REDUCED ORBITAL CHARGES
--------------------------------
  0 F s       :     3.925709  s :     3.925709
      pz      :     1.843262  p :     5.493555
      px      :     1.715000
      py      :     1.935294
      dz2     :     0.000824  d :     0.009449
      dxz     :     0.003946
      dyz     :     0.000999
      dx2y2   :     0.001772
      dxy     :     0.001908

  1 H s       :     0.518827  s :     0.518827
      pz      :     0.016835  p :     0.052634
      px      :     0.023723
      py      :     0.012075

  2 F s       :     3.925815  s :     3.925815
      pz      :     1.840697  p :     5.493382
      px      :     1.721550
      py      :     1.931134
      dz2     :     0.000827  d :     0.009446
      dxz     :     0.003918
      dyz     :     0.001065
      dx2y2   :     0.001683
      dxy     :     0.001954

  3 H s       :     0.518607  s :     0.518607
      pz      :     0.016951  p :     0.052576
      px      :     0.023358
      py      :     0.012267



                     *******************************
                     * LOEWDIN POPULATION ANALYSIS *
                     *******************************

----------------------
LOEWDIN ATOMIC CHARGES
----------------------
   0 F :   -0.226758
   1 H :    0.226576
   2 F :   -0.226864
   3 H :    0.227047

-------------------------------
LOEWDIN REDUCED ORBITAL CHARGES
-------------------------------
  0 F s       :     3.758435  s :     3.758435
      pz      :     1.830461  p :     5.455911
      px      :     1.707124
      py      :     1.918325
      dz2     :     0.000335  d :     0.012413
      dxz     :     0.006239
      dyz     :     0.001232
      dx2y2   :     0.002184
      dxy     :     0.002422

  1 H s       :     0.622481  s :     0.622481
      pz      :     0.048729  p :     0.150943
      px      :     0.065475
      py      :     0.036739

  2 F s       :     3.758687  s :     3.758687
      pz      :     1.828018  p :     5.455772
      px      :     1.713360
      py      :     1.914393
      dz2     :     0.000332  d :     0.012405
      dxz     :     0.006193
      dyz     :     0.001341
      dx2y2   :     0.002010
      dxy     :     0.002529

  3 H s       :     0.622208  s :     0.622208
      pz      :     0.048995  p :     0.150745
      px      :     0.064551
      py      :     0.037199



                      *****************************
                      * MAYER POPULATION ANALYSIS *
                      *****************************

  NA   - Mulliken gross atomic population
  ZA   - Total nuclear charge
  QA   - Mulliken gross atomic charge
  VA   - Mayer's total valence
  BVA  - Mayer's bonded valence
  FA   - Mayer's free valence

  ATOM       NA         ZA         QA         VA         BVA        FA
  0 F      9.4287     9.0000    -0.4287     0.8267     0.8267     0.0000
  1 H      0.5715     1.0000     0.4285     0.8261     0.8261    -0.0000
  2 F      9.4286     9.0000    -0.4286     0.8270     0.8270     0.0000
  3 H      0.5712     1.0000     0.4288     0.8257     0.8257    -0.0000

  Mayer bond orders larger than 0.100000
B(  0-F ,  1-H ) :   0.8186 B(  2-F ,  3-H ) :   0.8185 

-------
TIMINGS
-------

Total SCF time: 0 days 0 hours 0 min 0 sec 

Total time                  ....       0.093 sec
Sum of individual times     ....       0.084 sec  ( 90.3%)

SCF preparation             ....       0.011 sec  ( 12.1%)
Fock matrix formation       ....       0.069 sec  ( 74.1%)
  Startup                   ....       0.000 sec  (  0.2% of F)
  Coulomb+Exchange Fock     ....       0.072 sec  (105.3% of F)
Diagonalization             ....       0.000 sec  (  0.0%)
Density matrix formation    ....       0.001 sec  (  0.6%)
Total Energy calculation    ....       0.000 sec  (  0.2%)
Population analysis         ....       0.001 sec  (  0.6%)
Orbital Transformation      ....       0.000 sec  (  0.3%)
Orbital Orthonormalization  ....       0.000 sec  (  0.0%)
DIIS solution               ....       0.001 sec  (  1.5%)
SOSCF solution              ....       0.001 sec  (  0.8%)
Finished LeanSCF after   0.1 sec

Maximum memory used throughout the entire LEANSCF-calculation: 7.3 MB

------------------------------------------------------------------------------
                                ORCA  MP2 
------------------------------------------------------------------------------

Freezing NCore=4 chemical core electrons
MP2 will be done in the AO integral direct mode
The Q1-step will be done using symmetric double matrices
Dimension of the basis                    ...   38
Memory devoted for MP2                    ... 4096 MB   
Memory needed for all in one shot         ...    3 MB
Number of MOs that can be treated together... 19065      
MP2 density construction                  ... relaxed
The MP2 gradient is requested => amplitudes will be stored on disk
Total number of MOs              ...    8
Number of MOs treated per batch  ...    8 
Number of batches necessary      ...    1 
OPERATORS   0/  0 PASS   0
-----------------------------------------------
 MP2 CORRELATION ENERGY   :     -0.367697174 Eh
-----------------------------------------------


---------------------
MP2 DENSITY FORMATION
---------------------

Completing the external part of the density      ... done
Storing the unrelaxed density                    ... done

Calculating G(D)                                 ... done
Completing the Lagrangian                        ... done
Solving the Z-vector equations                   ... 
-------------------
SHARK CP-SCF DRIVER
-------------------

Dimension of the orbital basis          ...     38
Dimension of the CPSCF-problem          ...    280
Number of operators                     ...      1
Max. number of iterations               ...    128
Convergence Tolerance                   ... 1.0e-04
Number of perturbations                 ...      1
Perturbation type                       ... REAL

----------------------------
POPLE LINEAR EQUATION SOLVER
----------------------------

  ITERATION   0:   ||err||_max =   4.3724e-02 (   0.0 sec)
  ITERATION   1:   ||err||_max =   3.3524e-03 (   0.0 sec)
  ITERATION   2:   ||err||_max =   4.3374e-04 (   0.0 sec)
  ITERATION   3:   ||err||_max =   1.0239e-04 (   0.0 sec)
  ITERATION   4:   ||err||_max =   1.3895e-05 (   0.0 sec)
                                                 ... done
Finalizing the relaxed density                   ... done
Transforming P to the AO basis                   ... done
Storing the relaxed density                      ... done

------------------------------------
ENERGY WEIGHTED DENSITY FINALIZATION
------------------------------------

Gathering the parts of the W-matrix              ...                                                      done
Forming the Z-density                            ... done
Transforming Z to the AO basis                   ... done
Calculating G(Z)                                 ... done
Finalizing the W-matrix                          ...                                                      done
Transforming W to the AO basis and storing       ... done

                *********************************************
                * UNRELAXED MP2 DENSITY POPULATION ANALYSIS *
                *********************************************

------------------------------------------------------------------------------
                           ORCA POPULATION ANALYSIS
------------------------------------------------------------------------------
Input electron density              ... dimer.pmp2ur
BaseName (.gbw .S,...)              ... dimer

                    ********************************
                    * MULLIKEN POPULATION ANALYSIS *
                    ********************************

-----------------------
MULLIKEN ATOMIC CHARGES
-----------------------
   0 F :   -0.424771
   1 H :    0.424591
   2 F :   -0.424690
   3 H :    0.424869
Sum of atomic charges:    0.0000000

--------------------------------
MULLIKEN REDUCED ORBITAL CHARGES
--------------------------------
  0 F s       :     3.924433  s :     3.924433
      pz      :     1.836370  p :     5.472791
      px      :     1.707956
      py      :     1.928466
      dz2     :     0.004451  d :     0.027547
      dxz     :     0.007589
      dyz     :     0.004570
      dx2y2   :     0.005400
      dxy     :     0.005536
  1 H s       :     0.521727  s :     0.521727
      pz      :     0.017204  p :     0.053681
      px      :     0.023891
      py      :     0.012586
  2 F s       :     3.924538  s :     3.924538
      pz      :     1.833801  p :     5.472608
      px      :     1.714508
      py      :     1.924299
      dz2     :     0.004455  d :     0.027544
      dxz     :     0.007559
      dyz     :     0.004638
      dx2y2   :     0.005311
      dxy     :     0.005580
  3 H s       :     0.521507  s :     0.521507
      pz      :     0.017316  p :     0.053624
      px      :     0.023536
      py      :     0.012771


                     *******************************
                     * LOEWDIN POPULATION ANALYSIS *
                     *******************************

----------------------
LOEWDIN ATOMIC CHARGES
----------------------
   0 F :   -0.223059
   1 H :    0.222869
   2 F :   -0.223152
   3 H :    0.223341

-------------------------------
LOEWDIN REDUCED ORBITAL CHARGES
-------------------------------
  0 F s       :     3.757214  s :     3.757214
      pz      :     1.823569  p :     5.435141
      px      :     1.700092
      py      :     1.911480
      dz2     :     0.003860  d :     0.030704
      dxz     :     0.010132
      dyz     :     0.004809
      dx2y2   :     0.005824
      dxy     :     0.006078
  1 H s       :     0.624062  s :     0.624062
      pz      :     0.049444  p :     0.153069
      px      :     0.066144
      py      :     0.037481
  2 F s       :     3.757464  s :     3.757464
      pz      :     1.821121  p :     5.434992
      px      :     1.706329
      py      :     1.907541
      dz2     :     0.003857  d :     0.030697
      dxz     :     0.010083
      dyz     :     0.004926
      dx2y2   :     0.005640
      dxy     :     0.006192
  3 H s       :     0.623788  s :     0.623788
      pz      :     0.049709  p :     0.152871
      px      :     0.065222
      py      :     0.037940


                      *****************************
                      * MAYER POPULATION ANALYSIS *
                      *****************************

  NA   - Mulliken gross atomic population
  ZA   - Total nuclear charge
  QA   - Mulliken gross atomic charge
  VA   - Mayer's total valence
  BVA  - Mayer's bonded valence
  FA   - Mayer's free valence

  ATOM       NA         ZA         QA         VA         BVA        FA
  0 F      9.4248     9.0000    -0.4248     1.0797     0.7953     0.2844
  1 H      0.5754     1.0000     0.4246     0.8330     0.7948     0.0381
  2 F      9.4247     9.0000    -0.4247     1.0800     0.7955     0.2845
  3 H      0.5751     1.0000     0.4249     0.8325     0.7944     0.0382

  Mayer bond orders larger than 0.100000
B(  0-F ,  1-H ) :   0.7874 B(  2-F ,  3-H ) :   0.7873 


                *******************************************
                * RELAXED MP2 DENSITY POPULATION ANALYSIS *
                *******************************************

------------------------------------------------------------------------------
                           ORCA POPULATION ANALYSIS
------------------------------------------------------------------------------
Input electron density              ... dimer.pmp2re
BaseName (.gbw .S,...)              ... dimer

                    ********************************
                    * MULLIKEN POPULATION ANALYSIS *
                    ********************************

-----------------------
MULLIKEN ATOMIC CHARGES
-----------------------
   0 F :   -0.403448
   1 H :    0.403211
   2 F :   -0.403289
   3 H :    0.403526
Sum of atomic charges:    0.0000000

--------------------------------
MULLIKEN REDUCED ORBITAL CHARGES
--------------------------------
  0 F s       :     3.923399  s :     3.923399
      pz      :     1.830229  p :     5.452809
      px      :     1.697602
      py      :     1.924979
      dz2     :     0.004496  d :     0.027239
      dxz     :     0.007360
      dyz     :     0.004544
      dx2y2   :     0.005353
      dxy     :     0.005486
  1 H s       :     0.543844  s :     0.543844
      pz      :     0.017050  p :     0.052944
      px      :     0.022762
      py      :     0.013133
  2 F s       :     3.923513  s :     3.923513
      pz      :     1.827564  p :     5.452541
      px      :     1.704329
      py      :     1.920648
      dz2     :     0.004501  d :     0.027235
      dxz     :     0.007330
      dyz     :     0.004608
      dx2y2   :     0.005272
      dxy     :     0.005525
  3 H s       :     0.543585  s :     0.543585
      pz      :     0.017144  p :     0.052890
      px      :     0.022458
      py      :     0.013287


                     *******************************
                     * LOEWDIN POPULATION ANALYSIS *
                     *******************************

----------------------
LOEWDIN ATOMIC CHARGES
----------------------
   0 F :   -0.213415
   1 H :    0.213184
   2 F :   -0.213453
   3 H :    0.213684

-------------------------------
LOEWDIN REDUCED ORBITAL CHARGES
-------------------------------
  0 F s       :     3.758750  s :     3.758750
      pz      :     1.820068  p :     5.423728
      px      :     1.694647
      py      :     1.909013
      dz2     :     0.003888  d :     0.030937
      dxz     :     0.010219
      dyz     :     0.004834
      dx2y2   :     0.005866
      dxy     :     0.006130
  1 H s       :     0.634816  s :     0.634816
      pz      :     0.049214  p :     0.152000
      px      :     0.064675
      py      :     0.038112
  2 F s       :     3.759001  s :     3.759001
      pz      :     1.817577  p :     5.423521
      px      :     1.700948
      py      :     1.904996
      dz2     :     0.003885  d :     0.030930
      dxz     :     0.010169
      dyz     :     0.004952
      dx2y2   :     0.005680
      dxy     :     0.006245
  3 H s       :     0.634518  s :     0.634518
      pz      :     0.049454  p :     0.151798
      px      :     0.063813
      py      :     0.038531


                      *****************************
                      * MAYER POPULATION ANALYSIS *
                      *****************************

  NA   - Mulliken gross atomic population
  ZA   - Total nuclear charge
  QA   - Mulliken gross atomic charge
  VA   - Mayer's total valence
  BVA  - Mayer's bonded valence
  FA   - Mayer's free valence

  ATOM       NA         ZA         QA         VA         BVA        FA
  0 F      9.4034     9.0000    -0.4034     1.1000     0.8173     0.2827
  1 H      0.5968     1.0000     0.4032     0.8546     0.8168     0.0378
  2 F      9.4033     9.0000    -0.4033     1.1005     0.8177     0.2828
  3 H      0.5965     1.0000     0.4035     0.8541     0.8162     0.0379

  Mayer bond orders larger than 0.100000
B(  0-F ,  1-H ) :   0.8067 B(  2-F ,  3-H ) :   0.8067 


----------------------------------
MP2 DERIVATIVE INTEGRAL GENERATION
----------------------------------

Input SCF Electron Density              ... dimer.scfp
Input Correlated Electron Density       ... dimer.pmp2re
Input Energy Weighted Density           ... dimer.wmp2.tmp
Input Wavefunction Amplitudes           ... dimer.mp2tsaa.tmp

Nuclear repulsion gradient              ... done (  0.0 sec)
HCore & Overlap gradient  (SHARK)       ... done (  0.0 sec)
Analytic two-electron gradient terms    ... 
  Batch handling in the gradient evaluation:
  General contraction                   ... not used
  Memory available                      ... 4094.3 MB
  Memory per occupied orbital in Q2     ...    0.1 MB
  Memory per occupied orbital in Q3     ...    0.0 MB
  Total memory requirement per |i>      ...    0.1 MB
  Number of orbitals treated per batch  ...      8
  Number of batches to be done          ...      1
done (  0.1 sec)

---------------------------------------
MP2 TOTAL ENERGY:     -200.390246690 Eh
---------------------------------------

The final MP2 gradient
  0:  -0.01459972   0.00532813  -0.00983330
  1:   0.01256800  -0.00849201   0.01156145
  2:   0.01471086  -0.00564602   0.01008572
  3:  -0.01267913   0.00880990  -0.01181387

-----------------------------------
NORM OF THE MP2 GRADIENT:  0.037814
-----------------------------------

Maximum memory used throughout the entire MP2-calculation: 14.0 MB

-------------------------   --------------------
FINAL SINGLE POINT ENERGY      -200.390246689569
-------------------------   --------------------

------------------------------------------------------------------------------
                         ORCA GEOMETRY RELAXATION STEP
------------------------------------------------------------------------------

Reading the OPT-File                    .... done
Getting information on internals        .... done
Copying old internal coords+grads       .... done
Making the new internal coordinates     .... (2022 redundants) done
Validating the new internal coordinates .... (2022 redundants) done
Calculating the B-matrix                .... done
Calculating the G,G- and P matrices     .... done
Transforming gradient to internals      .... done
Projecting the internal gradient        .... done
Number of atoms                         ....   4
Number of internal coordinates          ....   9
Current Energy                          ....  -200.390246690 Eh
Current gradient norm                   ....     0.037814304 Eh/bohr
Maximum allowed component of the step   ....  0.300
Current trust radius                    ....  0.300
Evaluating the initial hessian          ....  (Almloef) done
Projecting the Hessian                  .... done
Forming the augmented Hessian           .... done
Diagonalizing the augmented Hessian     .... done
Last element of RFO vector              ....  0.983989463
Lowest eigenvalues of augmented Hessian:
 -0.001726475  0.010000000  0.010327520  0.041614676  0.045137130
Length of the computed step             ....  0.181126577
The final length of the internal step   ....  0.181126577
Converting the step to Cartesian space:
 Initial RMS(Int)=    0.0603755257
Transforming coordinates:
 Iter   0:  RMS(Cart)=    0.0265231205 RMS(Int)=    0.0603632033
done
Storing new coordinates                 .... done

                                .--------------------.
          ----------------------|Geometry convergence|-------------------------
          Item                value                   Tolerance       Converged
          ---------------------------------------------------------------------
          RMS gradient        0.0084979370            0.0001000000      NO
          MAX gradient        0.0174953976            0.0003000000      NO
          RMS step            0.0603755257            0.0020000000      NO
          MAX step            0.1096893418            0.0040000000      NO
          -------------------------------------------------------------------------
          ........................................................
          Max(Bonds)      0.0580      Max(Angles)    0.62
          Max(Dihed)        0.02      Max(Improp)    0.00
          ---------------------------------------------------------------------

The optimization has not yet converged - more geometry cycles are needed


    ---------------------------------------------------------------------------
                         Redundant Internal Coordinates
                            (Angstroem and degrees)

        Definition                    Value    dE/dq     Step     New-Value
    ----------------------------------------------------------------------------
     1. B(H   1,F   0)                0.9392  0.017175 -0.0188    0.9205   
     2. B(F   2,H   1)                2.7786 -0.001684 -0.0433    2.7354   
     3. B(F   2,F   0)                2.9930  0.002145 -0.0362    2.9567   
     4. B(H   3,H   1)                2.8871  0.005847 -0.0580    2.8291   
     5. B(H   3,F   0)                2.7942 -0.001642 -0.0430    2.7512   
     6. B(H   3,F   2)                0.9396  0.017495 -0.0191    0.9204   
     7. A(H   1,F   0,F   2)           67.86 -0.001442   -0.62     67.24   
     8. A(F   0,F   2,H   3)           68.81 -0.001572   -0.59     68.22   
     9. D(H   3,F   2,F   0,H   1)   -179.92  0.000008   -0.02   -179.94   
    ----------------------------------------------------------------------------

Geometry step timings:
Preparation and reading OPT file:      0.000 s ( 4.687 %)
Internal coordinates            :      0.000 s ( 4.297 %)
B/P matrices and projection     :      0.000 s (21.484 %)
Hessian update/contruction      :      0.000 s (15.234 %)
Making the step                 :      0.000 s (15.625 %)
Converting the step to Cartesian:      0.000 s ( 7.031 %)
Storing new data                :      0.000 s ( 3.516 %)
Checking convergence            :      0.000 s ( 6.250 %)
Final printing                  :      0.000 s (21.484 %)
Total time                      :      0.000 s

Time for energy+gradient        :      0.386 s
Time for complete geometry iter :      0.395 s

         *************************************************************
         *                GEOMETRY OPTIMIZATION CYCLE   2            *
         *************************************************************
---------------------------------
CARTESIAN COORDINATES (ANGSTROEM)
---------------------------------
  F     -5.310016    1.003970    0.192796
  H     -4.599363    0.709909    0.698495
  F     -2.881728    2.648977   -0.180247
  H     -3.583547    2.955164   -0.691020

----------------------------
CARTESIAN COORDINATES (A.U.)
----------------------------
  NO LB      ZA    FRAG     MASS         X           Y           Z
   0 F     9.0000    0    18.998  -10.034476    1.897229    0.364332
   1 H     1.0000    0     1.008   -8.691537    1.341534    1.319965
   2 F     9.0000    0    18.998   -5.445676    5.005841   -0.340618
   3 H     1.0000    0     1.008   -6.771922    5.584451   -1.305839

--------------------------------
INTERNAL COORDINATES (ANGSTROEM)
--------------------------------
 F      0   0   0     0.000000000000     0.00000000     0.00000000
 H      1   0   0     0.920451537090     0.00000000     0.00000000
 F      2   1   0     2.735405796258    94.69436983     0.00000000
 H      3   2   1     0.920429124478    86.29002563     0.05395721

---------------------------
INTERNAL COORDINATES (A.U.)
---------------------------
 F      0   0   0     0.000000000000     0.00000000     0.00000000
 H      1   0   0     1.739401324647     0.00000000     0.00000000
 F      2   1   0     5.169167820069    94.69436983     0.00000000
 H      3   2   1     1.739358970949    86.29002563     0.05395721

------------------------------------------------------------------------------
                   ___                                                        
                  /   \      - P O W E R E D   B Y -                         
                 /     \                                                     
                 |  |  |   _    _      __       _____    __    __             
                 |  |  |  | |  | |    /  \     |  _  \  |  |  /  |          
                  \  \/   | |  | |   /    \    | | | |  |  | /  /          
                 / \  \   | |__| |  /  /\  \   | |_| |  |  |/  /          
                |  |  |   |  __  | /  /__\  \  |    /   |      \           
                |  |  |   | |  | | |   __   |  |    \   |  |\   \          
                \     /   | |  | | |  |  |  |  | |\  \  |  | \   \       
                 \___/    |_|  |_| |__|  |__|  |_| \__\ |__|  \__/        
                                                                              
                      - O R C A' S   B I G   F R I E N D -                    
                                      &                                       
                       - I N T E G R A L  F E E D E R -                       
                                                                              
 v1 FN, 2020, v2 2021, v3 2022-2024                                           
------------------------------------------------------------------------------


----------------------
SHARK INTEGRAL PACKAGE
----------------------

Number of atoms                             ...      4
Number of basis functions                   ...     38
Number of shells                            ...     18
Maximum angular momentum                    ...      2
Integral batch strategy                     ... SHARK/LIBINT Hybrid
RI-J (if used) integral strategy            ... SPLIT-RIJ (Revised 2003 algorithm where possible)
Printlevel                                  ...      1
Contraction scheme used                     ... SEGMENTED contraction
Prescreening option                         ... SCHWARTZ
   Thresh                                   ... 2.500e-11
   Tcut                                     ... 2.500e-12
   Tpresel                                  ... 2.500e-12 
Coulomb Range Separation                    ... NOT USED
Exchange Range Separation                   ... NOT USED
Multipole approximations                    ... NOT USED
Finite Nucleus Model                        ... NOT USED
CABS basis                                  ... NOT available
Auxiliary Coulomb fitting basis             ... NOT available
Auxiliary J/K fitting basis                 ... NOT available
Auxiliary Correlation fitting basis         ... NOT available
Auxiliary 'external' fitting basis          ... NOT available

Checking pre-screening integrals            ... done (  0.0 sec) Dimension = 18
   => SHARK Basis and OBASIS are compatible. Storing Pre-screening
Shell pair information
Shell pair cut-off parameter TPreSel        ...   2.5e-12
Total number of shell pairs                 ...       171
Shell pairs after pre-screening             ...       166
Total number of primitive shell pairs       ...       868
Primitive shell pairs kept                  ...       663
          la=0 lb=0:     52 shell pairs
          la=1 lb=0:     58 shell pairs
          la=1 lb=1:     21 shell pairs
          la=2 lb=0:     20 shell pairs
          la=2 lb=1:     12 shell pairs
          la=2 lb=2:      3 shell pairs

Checking whether 4 symmetric matrices of dimension 38 fit in memory
:Max Core in MB      =   4096.00
 MB in use           =      1.41
 MB left             =   4094.59
 MB needed           =      0.02
 Data fit in memory  = YES
Calculating Nuclear repulsion               ... done (  0.0 sec) ENN=     28.505023239462 Eh

Diagonalization of the overlap matrix:
Smallest eigenvalue                        ... 4.558e-02
Time for diagonalization                   ...    0.000 sec
Threshold for overlap eigenvalues          ... 1.000e-07
Number of eigenvalues below threshold      ... 0
Time for construction of square roots      ...    0.000 sec
Total time needed                          ...    0.000 sec

-------------------
DFT GRID GENERATION
-------------------

General Integration Accuracy     IntAcc      ... 4.388
Radial Grid Type                 RadialGrid  ... OptM3 with GC (2021)
Angular Grid (max. ang.)         AngularGrid ... 4 (Lebedev-302)
Angular grid pruning method      GridPruning ... 4 (adaptive)
Weight generation scheme         WeightScheme... mBecke (2022)
Basis function cutoff            BFCut       ... 1.0000e-11
Integration weight cutoff        WCut        ... 1.0000e-14
Partially contracted basis set               ... off
Rotationally invariant grid construction     ... off
Angular grids for H and He will be reduced by one unit

Total number of grid points                  ...    18931
Total number of batches                      ...      297
Average number of points per batch           ...       63
Average number of grid points per atom       ...     4733
Grids setup in   0.0 sec
Initializing property integral containers    ... done (  0.0 sec)

SHARK setup successfully completed in   0.1 seconds

Maximum memory used throughout the entire STARTUP-calculation: 7.7 MB
Occupation numbers will be reassigned to an Aufbau configuration
             **** ENERGY FILE WAS UPDATED (dimer.en.tmp) ****
Finished Guess after   0.0 sec
Maximum memory used throughout the entire GUESS-calculation: 3.8 MB
----------------------------------------D-I-I-S--------------------------------------------
Iteration    Energy (Eh)           Delta-E    RMSDP     MaxDP     DIISErr   Damp  Time(sec)
-------------------------------------------------------------------------------------------
               ***  Starting incremental Fock matrix formation  ***
    1    -200.0250572351496317     0.00e+00  2.58e-04  2.01e-03  9.40e-03  0.700   0.0
    2    -200.0251396833778870    -8.24e-05  2.08e-04  1.64e-03  7.36e-03  0.700   0.0
                               ***Turning on AO-DIIS***
    3    -200.0252029553550415    -6.33e-05  1.73e-04  1.38e-03  5.62e-03  0.700   0.0
    4    -200.0252505317531018    -4.76e-05  4.42e-04  3.32e-03  4.11e-03  0.000   0.0
                              *** Initializing SOSCF ***
---------------------------------------S-O-S-C-F--------------------------------------
Iteration    Energy (Eh)           Delta-E    RMSDP     MaxDP     MaxGrad    Time(sec)
--------------------------------------------------------------------------------------
    5    -200.0253818632638740    -1.31e-04  4.33e-05  2.78e-04  4.11e-04     0.0
               *** Restarting incremental Fock matrix formation ***
    6    -200.0253829254789366    -1.06e-06  2.26e-05  1.66e-04  1.31e-04     0.0
    7    -200.0253831390152754    -2.14e-07  1.67e-05  1.32e-04  5.43e-05     0.0
    8    -200.0253831879041968    -4.89e-08  2.51e-06  2.16e-05  1.59e-05     0.0
    9    -200.0253831894046357    -1.50e-09  6.91e-07  5.60e-06  6.70e-06     0.0
                 **** Energy Check signals convergence ****

               *****************************************************
               *                     SUCCESS                       *
               *           SCF CONVERGED AFTER   9 CYCLES          *
               *****************************************************

             **** ENERGY FILE WAS UPDATED (dimer.en.tmp) ****

----------------
TOTAL SCF ENERGY
----------------

Total Energy       :       -200.02538318965398 Eh           -5442.96739 eV

Components:
Nuclear Repulsion  :         28.50502323946245 Eh             775.66112 eV
Electronic Energy  :       -228.53040642911643 Eh           -6218.62851 eV
One Electron Energy:       -337.59610522538514 Eh           -9186.45705 eV
Two Electron Energy:        109.06569879626872 Eh            2967.82855 eV

Virial components:
Potential Energy   :       -400.01814849169193 Eh          -10885.04721 eV
Kinetic Energy     :        199.99276530203792 Eh            5442.07981 eV
Virial Ratio       :          2.00016309533781

---------------
SCF CONVERGENCE
---------------

  Last Energy change         ...    1.5004e-09  Tolerance :   1.0000e-08
  Last MAX-Density change    ...    5.5994e-06  Tolerance :   1.0000e-07
  Last RMS-Density change    ...    6.9057e-07  Tolerance :   5.0000e-09
  Last DIIS Error            ...    4.1106e-04  Tolerance :   5.0000e-07
  Last Orbital Gradient      ...    6.7015e-06  Tolerance :   1.0000e-05
  Last Orbital Rotation      ...    2.6205e-06  Tolerance :   1.0000e-05


Total SCF time: 0 days 0 hours 0 min 0 sec 
Finished LeanSCF after   0.1 sec

Maximum memory used throughout the entire LEANSCF-calculation: 7.3 MB

------------------------------------------------------------------------------
                                ORCA  MP2 
------------------------------------------------------------------------------

Freezing NCore=4 chemical core electrons
MP2 will be done in the AO integral direct mode
The Q1-step will be done using symmetric double matrices
Dimension of the basis                    ...   38
Memory devoted for MP2                    ... 4096 MB   
Memory needed for all in one shot         ...    3 MB
Number of MOs that can be treated together... 19065      
MP2 density construction                  ... relaxed
The MP2 gradient is requested => amplitudes will be stored on disk
Total number of MOs              ...    8
Number of MOs treated per batch  ...    8 
Number of batches necessary      ...    1 
OPERATORS   0/  0 PASS   0
-----------------------------------------------
 MP2 CORRELATION ENERGY   :     -0.365841554 Eh
-----------------------------------------------


---------------------
MP2 DENSITY FORMATION
---------------------

Completing the external part of the density      ... done
Storing the unrelaxed density                    ... done

Calculating G(D)                                 ... done
Completing the Lagrangian                        ... done
Solving the Z-vector equations                   ... 
-------------------
SHARK CP-SCF DRIVER
-------------------

Dimension of the orbital basis          ...     38
Dimension of the CPSCF-problem          ...    280
Number of operators                     ...      1
Max. number of iterations               ...    128
Convergence Tolerance                   ... 1.0e-04
Number of perturbations                 ...      1
Perturbation type                       ... REAL

----------------------------
POPLE LINEAR EQUATION SOLVER
----------------------------

  ITERATION   0:   ||err||_max =   4.2931e-02 (   0.0 sec)
  ITERATION   1:   ||err||_max =   3.2270e-03 (   0.0 sec)
  ITERATION   2:   ||err||_max =   4.0821e-04 (   0.0 sec)
  ITERATION   3:   ||err||_max =   9.2286e-05 (   0.0 sec)
                                                 ... done
Finalizing the relaxed density                   ... done
Transforming P to the AO basis                   ... done
Storing the relaxed density                      ... done

------------------------------------
ENERGY WEIGHTED DENSITY FINALIZATION
------------------------------------

Gathering the parts of the W-matrix              ...                                                      done
Forming the Z-density                            ... done
Transforming Z to the AO basis                   ... done
Calculating G(Z)                                 ... done
Finalizing the W-matrix                          ...                                                      done
Transforming W to the AO basis and storing       ... done

----------------------------------
MP2 DERIVATIVE INTEGRAL GENERATION
----------------------------------

Input SCF Electron Density              ... dimer.scfp
Input Correlated Electron Density       ... dimer.pmp2re
Input Energy Weighted Density           ... dimer.wmp2.tmp
Input Wavefunction Amplitudes           ... dimer.mp2tsaa.tmp

Nuclear repulsion gradient              ... done (  0.0 sec)
HCore & Overlap gradient  (SHARK)       ... done (  0.0 sec)
Analytic two-electron gradient terms    ... 
  Batch handling in the gradient evaluation:
  General contraction                   ... not used
  Memory available                      ... 4094.2 MB
  Memory per occupied orbital in Q2     ...    0.1 MB
  Memory per occupied orbital in Q3     ...    0.0 MB
  Total memory requirement per |i>      ...    0.1 MB
  Number of orbitals treated per batch  ...      8
  Number of batches to be done          ...      1
done (  0.0 sec)

---------------------------------------
MP2 TOTAL ENERGY:     -200.391224744 Eh
---------------------------------------

The final MP2 gradient
  0:   0.00169347  -0.00164342   0.00194882
  1:  -0.00374958  -0.00154964  -0.00020691
  2:  -0.00168710   0.00173907  -0.00202537
  3:   0.00374321   0.00145399   0.00028346

-----------------------------------
NORM OF THE MP2 GRADIENT:  0.007214
-----------------------------------

Maximum memory used throughout the entire MP2-calculation: 14.1 MB

-------------------------   --------------------
FINAL SINGLE POINT ENERGY      -200.391224743797
-------------------------   --------------------

------------------------------------------------------------------------------
                         ORCA GEOMETRY RELAXATION STEP
------------------------------------------------------------------------------

Reading the OPT-File                    .... done
Getting information on internals        .... done
Copying old internal coords+grads       .... done
Making the new internal coordinates     .... (2022 redundants) done
Validating the new internal coordinates .... (2022 redundants) done
Calculating the B-matrix                .... done
Calculating the G,G- and P matrices     .... done
Transforming gradient to internals      .... done
Projecting the internal gradient        .... done
Number of atoms                         ....   4
Number of internal coordinates          ....   9
Current Energy                          ....  -200.391224744 Eh
Current gradient norm                   ....     0.007214493 Eh/bohr
Maximum allowed component of the step   ....  0.300
Current trust radius                    ....  0.300
Updating the Hessian (BFGS)             .... done
Forming the augmented Hessian           .... done
Diagonalizing the augmented Hessian     .... done
Last element of RFO vector              ....  0.969127310
Lowest eigenvalues of augmented Hessian:
 -0.000549232  0.007588658  0.010000001  0.039240529  0.045137169
Length of the computed step             ....  0.254415345
The final length of the internal step   ....  0.254415345
Converting the step to Cartesian space:
 Initial RMS(Int)=    0.0848051151
Transforming coordinates:
 Iter   0:  RMS(Cart)=    0.0374887092 RMS(Int)=    0.0847697350
done
Storing new coordinates                 .... done
The predicted energy change is          ....    -0.000292391
Previously predicted energy change      ....    -0.000891558
Actually observed energy change         ....    -0.000978054
Ratio of predicted to observed change   ....     1.097017244
New trust radius                        ....     0.450000000

                                .--------------------.
          ----------------------|Geometry convergence|-------------------------
          Item                value                   Tolerance       Converged
          ---------------------------------------------------------------------
          Energy change      -0.0009780542            0.0000050000      NO
          RMS gradient        0.0015724926            0.0001000000      NO
          MAX gradient        0.0027628625            0.0003000000      NO
          RMS step            0.0848051151            0.0020000000      NO
          MAX step            0.1415825483            0.0040000000      NO
          -------------------------------------------------------------------------
          ........................................................
          Max(Bonds)      0.0749      Max(Angles)    0.96
          Max(Dihed)        0.03      Max(Improp)    0.00
          ---------------------------------------------------------------------

The optimization has not yet converged - more geometry cycles are needed


    ---------------------------------------------------------------------------
                         Redundant Internal Coordinates
                            (Angstroem and degrees)

        Definition                    Value    dE/dq     Step     New-Value
    ----------------------------------------------------------------------------
     1. B(H   1,F   0)                0.9205 -0.002698 -0.0021    0.9183   
     2. B(F   2,H   1)                2.7354  0.001512 -0.0683    2.6671   
     3. B(F   2,F   0)                2.9567 -0.000139 -0.0557    2.9009   
     4. B(H   3,H   1)                2.8291  0.001251 -0.0749    2.7542   
     5. B(H   3,F   0)                2.7512  0.001460 -0.0677    2.6835   
     6. B(H   3,F   2)                0.9204 -0.002763 -0.0022    0.9183   
     7. A(H   1,F   0,F   2)           67.23  0.000821   -0.96     66.27   
     8. A(F   0,F   2,H   3)           68.21  0.000815   -0.92     67.30   
     9. D(H   3,F   2,F   0,H   1)   -179.94  0.000003   -0.03   -179.97   
    ----------------------------------------------------------------------------

Geometry step timings:
Preparation and reading OPT file:      0.000 s ( 3.475 %)
Internal coordinates            :      0.000 s ( 3.475 %)
B/P matrices and projection     :      0.000 s (18.147 %)
Hessian update/contruction      :      0.000 s (27.799 %)
Making the step                 :      0.000 s (17.761 %)
Converting the step to Cartesian:      0.000 s ( 4.633 %)
Storing new data                :      0.000 s ( 3.089 %)
Checking convergence            :      0.000 s ( 7.722 %)
Final printing                  :      0.000 s (13.900 %)
Total time                      :      0.000 s

Time for energy+gradient        :      0.339 s
Time for complete geometry iter :      0.347 s

         *************************************************************
         *                GEOMETRY OPTIMIZATION CYCLE   3            *
         *************************************************************
---------------------------------
CARTESIAN COORDINATES (ANGSTROEM)
---------------------------------
  F     -5.291740    1.024810    0.183417
  H     -4.577225    0.738468    0.684220
  F     -2.900191    2.628002   -0.170573
  H     -3.605497    2.926740   -0.677041

----------------------------
CARTESIAN COORDINATES (A.U.)
----------------------------
  NO LB      ZA    FRAG     MASS         X           Y           Z
   0 F     9.0000    0    18.998   -9.999940    1.936610    0.346609
   1 H     1.0000    0     1.008   -8.649702    1.395503    1.292989
   2 F     9.0000    0    18.998   -5.480567    4.966204   -0.322337
   3 H     1.0000    0     1.008   -6.813401    5.530737   -1.279421

--------------------------------
INTERNAL COORDINATES (ANGSTROEM)
--------------------------------
 F      0   0   0     0.000000000000     0.00000000     0.00000000
 H      1   0   0     0.918328402784     0.00000000     0.00000000
 F      2   1   0     2.667105485296    95.36788494     0.00000000
 H      3   2   1     0.918264310432    85.65801721     0.02960277

---------------------------
INTERNAL COORDINATES (A.U.)
---------------------------
 F      0   0   0     0.000000000000     0.00000000     0.00000000
 H      1   0   0     1.735389182263     0.00000000     0.00000000
 F      2   1   0     5.040098937489    95.36788494     0.00000000
 H      3   2   1     1.735268065270    85.65801721     0.02960277

------------------------------------------------------------------------------
                   ___                                                        
                  /   \      - P O W E R E D   B Y -                         
                 /     \                                                     
                 |  |  |   _    _      __       _____    __    __             
                 |  |  |  | |  | |    /  \     |  _  \  |  |  /  |          
                  \  \/   | |  | |   /    \    | | | |  |  | /  /          
                 / \  \   | |__| |  /  /\  \   | |_| |  |  |/  /          
                |  |  |   |  __  | /  /__\  \  |    /   |      \           
                |  |  |   | |  | | |   __   |  |    \   |  |\   \          
                \     /   | |  | | |  |  |  |  | |\  \  |  | \   \       
                 \___/    |_|  |_| |__|  |__|  |_| \__\ |__|  \__/        
                                                                              
                      - O R C A' S   B I G   F R I E N D -                    
                                      &                                       
                       - I N T E G R A L  F E E D E R -                       
                                                                              
 v1 FN, 2020, v2 2021, v3 2022-2024                                           
------------------------------------------------------------------------------


----------------------
SHARK INTEGRAL PACKAGE
----------------------

Number of atoms                             ...      4
Number of basis functions                   ...     38
Number of shells                            ...     18
Maximum angular momentum                    ...      2
Integral batch strategy                     ... SHARK/LIBINT Hybrid
RI-J (if used) integral strategy            ... SPLIT-RIJ (Revised 2003 algorithm where possible)
Printlevel                                  ...      1
Contraction scheme used                     ... SEGMENTED contraction
Prescreening option                         ... SCHWARTZ
   Thresh                                   ... 2.500e-11
   Tcut                                     ... 2.500e-12
   Tpresel                                  ... 2.500e-12 
Coulomb Range Separation                    ... NOT USED
Exchange Range Separation                   ... NOT USED
[...]
Position of electric origin             ...    -7.741619     3.444243     0.017587

General magnetic properties:
Magnetizability                         ...  NO

EPR properties:
g-Tensor (aka g-matrix)                 ...  NO
Zero-Field splitting spin-orbit         ...  NO
Zero-field splitting spin-spin          ...  NO
Hyperfine couplings                     ...  NO (   0 nuclei)
Quadrupole couplings                    ...  NO (   0 nuclei)
Contact density                         ...  NO (   0 nuclei)

NMR properties:
Chemical shifts                         ...  NO (   0 nuclei)
Spin-rotation constants                 ...  NO (   0 nuclei)
Spin-spin couplings                     ...  NO (   0 nuclei,    0 pairs)

Choice of magnetic origin               ... GIAO
Position of magnetic origin             ...     0.000000     0.000000     0.000000

Properties with geometric perturbations:
SCF Hessian                             ...  NO
IR spectrum                             ...  NO
VCD spectrum                            ...  NO
X-ray spectroscopy properties:
SCF XES/XAS/RIXS spectra                ...  NO

SCF SOC stabilization energy            ...  NO
Diagonal Born-Oppenheimer correction    ...  NO

-------------
DIPOLE MOMENT
-------------

Method             : SCF
Type of density    : Electron Density
Multiplicity       :   1
Irrep              :   0
Energy             :  -200.0281084377375294 Eh
Basis              : AO
                                X                 Y                 Z
Electronic contribution:      0.004643371       0.002210726       0.000027710
Nuclear contribution   :      0.012615598       0.028735771      -0.017935879
                        -----------------------------------------
Total Dipole Moment    :      0.017258969       0.030946498      -0.017908169
                        -----------------------------------------
Magnitude (a.u.)       :      0.039702144
Magnitude (Debye)      :      0.100914830



--------------------
Rotational spectrum 
--------------------
 
Rotational constants in cm-1:            17.735131             0.271422             0.267331 
Rotational constants in MHz :        531685.852845          8137.033554          8014.379778 

Dipole components along the rotational axes: 
x,y,z [a.u.] :     0.032421     0.022916    -0.000003 
x,y,z [Debye]:     0.082407     0.058248    -0.000007 

 

-------------
DIPOLE MOMENT
-------------

Method             : MP2
Type of density    : Electron Density
Multiplicity       :   1
Level              : Unrelaxed density
Irrep              :   0
Energy             :     0.0000000000000000 Eh
Basis              : AO
                                X                 Y                 Z
Electronic contribution:      0.004627840       0.001987739       0.000198456
Nuclear contribution   :      0.012615598       0.028735771      -0.017935879
                        -----------------------------------------
Total Dipole Moment    :      0.017243438       0.030723511      -0.017737423
                        -----------------------------------------
Magnitude (a.u.)       :      0.039444727
Magnitude (Debye)      :      0.100260527



--------------------
Rotational spectrum 
--------------------
 
Rotational constants in cm-1:            17.735131             0.271422             0.267331 
Rotational constants in MHz :        531685.852845          8137.033554          8014.379778 

Dipole components along the rotational axes: 
x,y,z [a.u.] :     0.032276     0.022675    -0.000003 
x,y,z [Debye]:     0.082038     0.057636    -0.000007 

 

-------------
DIPOLE MOMENT
-------------

Method             : MP2
Type of density    : Electron Density
Multiplicity       :   1
Level              : Relaxed density
Irrep              :   0
Energy             :     0.0000000000000000 Eh
Basis              : AO
                                X                 Y                 Z
Electronic contribution:      0.004898026       0.001639324       0.000578132
Nuclear contribution   :      0.012615598       0.028735771      -0.017935879
                        -----------------------------------------
Total Dipole Moment    :      0.017513624       0.030375095      -0.017357747
                        -----------------------------------------
Magnitude (a.u.)       :      0.039123712
Magnitude (Debye)      :      0.099444572



--------------------
Rotational spectrum 
--------------------
 
Rotational constants in cm-1:            17.735131             0.271422             0.267331 
Rotational constants in MHz :        531685.852845          8137.033554          8014.379778 

Dipole components along the rotational axes: 
x,y,z [a.u.] :     0.032288     0.022093    -0.000003 
x,y,z [Debye]:     0.082071     0.056157    -0.000007 

 

Dipole moment calculation done in   0.0 sec 

Maximum memory used throughout the entire PROP-calculation: 2.3 MB

----------------------------------------------------------------------------
                           ORCA NUMERICAL FREQUENCIES
----------------------------------------------------------------------------

Number of atoms                ... 4
Central differences            ... used
Translation invariance         ... used
Number of displacements        ... 24 - 6
Numerical increment            ... 5.000e-03 bohr
IR-spectrum generation         ... on
Raman-spectrum generation      ... off
Surface Crossing Hessian       ... off

The output will be reduced. Please look at the following files:
SCF program output             ... >dimer.lastscf
Integral program output        ... >dimer.lastint
Gradient program output        ... >dimer.lastgrad
Dipole moment program output   ... >dimer.lastmom

	<< Calculating gradient on displaced geometry   1 (of  18) >>
	<< Calculating gradient on displaced geometry   2 (of  18) >>
	<< Calculating gradient on displaced geometry   3 (of  18) >>
	<< Calculating gradient on displaced geometry   4 (of  18) >>
	<< Calculating gradient on displaced geometry   5 (of  18) >>
	<< Calculating gradient on displaced geometry   6 (of  18) >>
	<< Calculating gradient on displaced geometry   7 (of  18) >>
	<< Calculating gradient on displaced geometry   8 (of  18) >>
	<< Calculating gradient on displaced geometry   9 (of  18) >>
	<< Calculating gradient on displaced geometry  10 (of  18) >>
	<< Calculating gradient on displaced geometry  11 (of  18) >>
	<< Calculating gradient on displaced geometry  12 (of  18) >>
	<< Calculating gradient on displaced geometry  13 (of  18) >>
	<< Calculating gradient on displaced geometry  14 (of  18) >>
	<< Calculating gradient on displaced geometry  15 (of  18) >>
	<< Calculating gradient on displaced geometry  16 (of  18) >>
	<< Calculating gradient on displaced geometry  17 (of  18) >>
	<< Calculating gradient on displaced geometry  18 (of  18) >>

-----------------------
VIBRATIONAL FREQUENCIES
-----------------------

Scaling factor for frequencies =  1.000000000  (already applied!)

     0:       0.00 cm**-1
     1:       0.00 cm**-1
     2:       0.00 cm**-1
     3:       0.00 cm**-1
     4:       0.00 cm**-1
     5:       0.00 cm**-1
     6:     144.92 cm**-1
     7:     235.44 cm**-1
     8:     515.36 cm**-1
     9:     758.22 cm**-1
    10:    4079.60 cm**-1
    11:    4112.94 cm**-1


------------
NORMAL MODES
------------

These modes are the Cartesian displacements weighted by the diagonal matrix
M(i,i)=1/sqrt(m[i]) where m[i] is the mass of the displaced atom
Thus, these vectors are normalized but *not* orthogonal

                  0          1          2          3          4          5    
      0       0.000000   0.000000   0.000000   0.000000   0.000000   0.000000
      1       0.000000   0.000000   0.000000   0.000000   0.000000   0.000000
      2       0.000000   0.000000   0.000000   0.000000   0.000000   0.000000
      3       0.000000   0.000000   0.000000   0.000000   0.000000   0.000000
      4       0.000000   0.000000   0.000000   0.000000   0.000000   0.000000
      5       0.000000   0.000000   0.000000   0.000000   0.000000   0.000000
      6       0.000000   0.000000   0.000000   0.000000   0.000000   0.000000
      7       0.000000   0.000000   0.000000   0.000000   0.000000   0.000000
      8       0.000000   0.000000   0.000000   0.000000   0.000000   0.000000
      9       0.000000   0.000000   0.000000   0.000000   0.000000   0.000000
     10       0.000000   0.000000   0.000000   0.000000   0.000000   0.000000
     11       0.000000   0.000000   0.000000   0.000000   0.000000   0.000000
                  6          7          8          9         10         11    
      0      -0.023177  -0.403474   0.010749   0.025147  -0.034676  -0.032484
      1      -0.036776  -0.249379  -0.022180   0.014068   0.004035   0.003710
      2       0.020133   0.043063  -0.028117  -0.001528  -0.016476  -0.015375
      3       0.217945  -0.468442  -0.207202  -0.230173   0.652152   0.612442
      4       0.548441  -0.396581   0.426445  -0.571967  -0.085570  -0.069479
      5      -0.348624   0.133745   0.540654   0.365236   0.317549   0.289502
      6      -0.002890   0.409796   0.010851  -0.026130   0.031775  -0.034283
      7      -0.022840   0.263933  -0.022226  -0.013056  -0.004943   0.005255
      8       0.016863  -0.052068  -0.028222   0.000318   0.016088  -0.017288
      9       0.273359   0.349302  -0.199890   0.248705  -0.597472   0.645930
     10       0.575143   0.122277   0.410499   0.552882   0.102692  -0.099485
     11      -0.348641   0.035971   0.521185  -0.342429  -0.310220   0.326107


-----------
IR SPECTRUM
-----------

 Mode   freq       eps      Int      T**2         TX        TY        TZ
       cm**-1   L/(mol*cm) km/mol    a.u.
----------------------------------------------------------------------------
  6:    144.92   0.115459  583.48  0.248633  ( 0.223107  0.387572 -0.220554)
  7:    235.44   0.000815    4.12  0.001081  (-0.014995 -0.025498  0.014337)
  8:    515.36   0.068618  346.77  0.041550  (-0.059061  0.120615  0.153342)
  9:    758.22   0.000051    0.26  0.000021  ( 0.000519 -0.003433  0.003001)
 10:   4079.60   0.000190    0.96  0.000015  ( 0.003426  0.001679 -0.000028)
 11:   4112.94   0.052844  267.05  0.004009  ( 0.058436 -0.002424  0.024266)

* The epsilon (eps) is given for a Dirac delta lineshape.
** The dipole moment derivative (T) already includes vibrational overlap.

The first frequency considered to be a vibration is 6
The total number of vibrations considered is 6


--------------------------
THERMOCHEMISTRY AT 298.15K
--------------------------

Temperature         ...   298.15 K
Pressure            ...     1.00 atm
Total Mass          ...    40.01 AMU
Quasi RRHO          ...     True
Cut-Off Frequency   ...     1.00 cm^-1

Throughout the following assumptions are being made:
  (1) The electronic state is orbitally nondegenerate
  (2) There are no thermally accessible electronically excited states
  (3) Hindered rotations indicated by low frequency modes are not
      treated as such but are treated as vibrations and this may
      cause some error
  (4) All equations used are the standard statistical mechanics
      equations for an ideal gas
  (5) All vibrations are strictly harmonic

freq.     144.92  E(vib)   ...       0.41 
freq.     235.44  E(vib)   ...       0.32 
freq.     515.36  E(vib)   ...       0.13 
freq.     758.22  E(vib)   ...       0.06 
freq.    4079.60  E(vib)   ...       0.00 
freq.    4112.94  E(vib)   ...       0.00 

------------
INNER ENERGY
------------

The inner energy is: U= E(el) + E(ZPE) + E(vib) + E(rot) + E(trans)
    E(el)   - is the total energy from the electronic structure calculation
              = E(kin-el) + E(nuc-el) + E(el-el) + E(nuc-nuc)
    E(ZPE)  - the the zero temperature vibrational energy from the frequency calculation
    E(vib)  - the the finite temperature correction to E(ZPE) due to population
              of excited vibrational states
    E(rot)  - is the rotational thermal energy
    E(trans)- is the translational thermal energy

Summary of contributions to the inner energy U:
Electronic energy                ...   -200.39703625 Eh
Zero point energy                ...      0.02243194 Eh      14.08 kcal/mol
Thermal vibrational correction   ...      0.00146387 Eh       0.92 kcal/mol
Thermal rotational correction    ...      0.00141627 Eh       0.89 kcal/mol
Thermal translational correction ...      0.00141627 Eh       0.89 kcal/mol
-----------------------------------------------------------------------
Total thermal energy                   -200.37030790 Eh


Summary of corrections to the electronic energy:
(perhaps to be used in another calculation)
Total thermal correction                  0.00429641 Eh       2.70 kcal/mol
Non-thermal (ZPE) correction              0.02243194 Eh      14.08 kcal/mol
-----------------------------------------------------------------------
Total correction                          0.02672835 Eh      16.77 kcal/mol


--------
ENTHALPY
--------

The enthalpy is H = U + kB*T
                kB is Boltzmann's constant
Total thermal energy              ...   -200.37030790 Eh 
Thermal Enthalpy correction       ...      0.00094421 Eh       0.59 kcal/mol
-----------------------------------------------------------------------
Total Enthalpy                    ...   -200.36936369 Eh


Note: Rotational entropy computed according to Herzberg 
Infrared and Raman Spectra, Chapter V,1, Van Nostrand Reinhold, 1945 
Point Group:  Cs, Symmetry Number:   1  
Rotational constants in cm-1:    17.735146     0.271422     0.267331 

Vibrational entropy computed according to the QRRHO of S. Grimme
Chem.Eur.J. 2012 18 9955 using a reference frequency of 100.0 cm-1


-------
ENTROPY
-------

The entropy contributions are T*S = T*(S(el)+S(vib)+S(rot)+S(trans))
     S(el)   - electronic entropy
     S(vib)  - vibrational entropy
     S(rot)  - rotational entropy
     S(trans)- translational entropy
The entropies will be listed as multiplied by the temperature to get
units of energy

Electronic entropy                ...      0.00000000 Eh      0.00 kcal/mol
Vibrational entropy               ...      0.00256539 Eh      1.61 kcal/mol
Rotational entropy                ...      0.00939175 Eh      5.89 kcal/mol
Translational entropy             ...      0.01757395 Eh     11.03 kcal/mol
-----------------------------------------------------------------------
Final entropy term                ...      0.02953109 Eh     18.53 kcal/mol

In case the symmetry of your molecule has not been determined correctly
or in case you have a reason to use a different symmetry number we print 
out the resulting rotational entropy values for sn=1,12:

 non-linear molecules -----------------------------------
|  sn= 1 | S(rot)=       0.00939175 Eh      5.89 kcal/mol|
|  sn= 2 | S(rot)=       0.00873729 Eh      5.48 kcal/mol|
|  sn= 3 | S(rot)=       0.00835446 Eh      5.24 kcal/mol|
|  sn= 4 | S(rot)=       0.00808284 Eh      5.07 kcal/mol|
|  sn= 5 | S(rot)=       0.00787215 Eh      4.94 kcal/mol|
|  sn= 6 | S(rot)=       0.00770000 Eh      4.83 kcal/mol|
|  sn= 7 | S(rot)=       0.00755446 Eh      4.74 kcal/mol|
|  sn= 8 | S(rot)=       0.00742838 Eh      4.66 kcal/mol|
|  sn= 9 | S(rot)=       0.00731717 Eh      4.59 kcal/mol|
|  sn=10 | S(rot)=       0.00721769 Eh      4.53 kcal/mol|
|  sn=11 | S(rot)=       0.00712770 Eh      4.47 kcal/mol|
|  sn=12 | S(rot)=       0.00704555 Eh      4.42 kcal/mol|
 linear molecules ---------------------------------------
|  Dinfh | S(rot)=       0.00657143 Eh      4.12 kcal/mol|
|  Cinfv | S(rot)=       0.00722589 Eh      4.53 kcal/mol|
 --------------------------------------------------------


-------------------
GIBBS FREE ENERGY
-------------------

The Gibbs free energy is G = H - T*S

Total enthalpy                    ...   -200.36936369 Eh 
Total entropy correction          ...     -0.02953109 Eh    -18.53 kcal/mol
-----------------------------------------------------------------------
Final Gibbs free energy         ...   -200.39889477 Eh

For completeness - the Gibbs free energy minus the electronic energy
G-E(el)                           ...     -0.00185853 Eh     -1.17 kcal/mol



--------------------------------
SUGGESTED CITATIONS FOR THIS RUN
--------------------------------

Below you find a list of papers that are relevant to this ORCA run
We neither can nor want to force you to cite these papers, but we appreciate if you do
You receive ORCA, which is the product of decades of hard work by many enthusiastic individuals, for free
The only thing we kindly ask in return is that you cite our papers,
We deeply appreciate it, if you show your appreciation for ORCA by not just citing the generic ORCA reference.

Please note that relegating all ORCA citations to the supporting information does *not* help us.
SI sections are not indexed - citations you put there will not count into any citation statistics
But we need these citations in order to attract the funding resources that allow us to do what we are doing

Therefore, if you are a happy ORCA user, please consider citing a few of the papers listed below in the main body of your paper

In addition to the list printed below, the program has created the file dimer.bibtex that contains the list in bibtex format
You can import this file easily into all common literature databanks and citation aid programs


List of essential papers. We consider these as the minimum necessary citations

  1. Neese, F.
     Software update: the ORCA program system, version 6.0
     WIRES Comput. Molec. Sci. 2025 15(1), e70019
     doi.org/10.1002/wcms.7019

List of papers to cite with high priority. The work reported in these papers was absolutely
necessary for this run to complete.
Our perspective: the developers of density functionals and basis sets usually get cited in chemistry papers
Good! But without the algorithms to do something with them, the functionals or basis sets would not do anything.
Hence, in our opinion, the algorithm design and method developments papers are equally worthy of getting cited

  1. Neese, F.
     The SHARK Integral Generation and Digestion System
     J. Comp. Chem. 2022 44(3), 381
     doi.org/10.1002/jcc.26942

List of suggested additional citations. These are papers that are important in the 'surrounding' of 
of this run, or papers that preceded the highly important papers. If you like your results we are grateful for a citation.

  1. Neese, F.
     The ORCA program system
     WIRES Comput. Molec. Sci. 2012 2(1), 73-78
     doi.org/10.1002/wcms.81
  2. Neese, F.
     Software update: the ORCA program system, version 4.0
     WIRES Comput. Molec. Sci. 2018 8(1), 1-6
     doi.org/10.1002/wcms.1327
  3. Neese, F.; Wennmohs, F.; Becker, U.; Riplinger, C.
     The ORCA quantum chemistry program package
     J. Chem. Phys. 2020 152(22), 224108
     doi.org/10.1063/5.0004608
  4. Neese, F.
     Software update: The ORCA program system—Version 5.0
     WIRES Comput. Molec. Sci. 2022 12(1), e1606
     doi.org/10.1002/wcms.1606

List of optional additional citations

  1. Neese, F.
     Approximate second-order SCF convergence for spin unrestricted wavefunctions
     Chem. Phys. Lett. 2000 325(1-3), 93-98
     doi.org/10.1016/s0009-2614(00)00662-x

Timings for individual modules:

Sum of individual times          ...       16.337 sec (=   0.272 min)
Startup calculation              ...        1.076 sec (=   0.018 min)   6.6 %
SCF iterations                   ...        1.742 sec (=   0.029 min)  10.7 %
Property calculations            ...        0.027 sec (=   0.000 min)   0.2 %
MP2 module                       ...        2.969 sec (=   0.049 min)  18.2 %
Geometry relaxation              ...        0.007 sec (=   0.000 min)   0.0 %
Numerical frequency calculation  ...       10.516 sec (=   0.175 min)  64.4 %
                             ****ORCA TERMINATED NORMALLY****
TOTAL RUN TIME: 0 days 0 hours 0 minutes 16 seconds 221 msec
