
                                 *****************
                                 * O   R   C   A *
                                 *****************

                                            #,                                       
                                            ###                                      
                                            ####                                     
                                            #####                                    
                                            ######                                   
                                           ########,                                 
                                     ,,################,,,,,                         
                               ,,#################################,,                 
                          ,,##########################################,,             
                       ,#########################################, ''#####,          
                    ,#############################################,,   '####,        
                  ,##################################################,,,,####,       
                ,###########''''           ''''###############################       
              ,#####''   ,,,,##########,,,,          '''####'''          '####       
            ,##' ,,,,###########################,,,                        '##       
           ' ,,###''''                  '''############,,,                           
         ,,##''                                '''############,,,,        ,,,,,,###''
      ,#''                                            '''#######################'''  
     '                                                          ''''####''''         
             ,#######,   #######,   ,#######,      ##                                
            ,#'     '#,  ##    ##  ,#'     '#,    #''#        ,####,    ,#,          
            ##       ##  ##   ,#'  ##            #'  '#       #'       ,# #          
            ##       ##  #######   ##           ,######,      #####,      #          
            '#,     ,#'  ##    ##  '#,     ,#' ,#      #,     #,   #      #          
             '#######'   ##     ##  '#######'  #'      '#     '####' #    #          



                #########################################################
                #                        -***-                          #
                #          Department of theory and spectroscopy        #
                #                                                       #
                #                      Frank Neese                      #
                #                                                       #
                #     Directorship, Architecture, Infrastructure        #
                #                    SHARK, DRIVERS                     #
                #        Core code/Algorithms in most modules           #
                #                                                       #
                #        Max Planck Institute fuer Kohlenforschung      #
                #                Kaiser Wilhelm Platz 1                 #
                #                 D-45470 Muelheim/Ruhr                 #
                #                      Germany                          #
                #                                                       #
                #                  All rights reserved                  #
                #                        -***-                          #
                #########################################################


                         Program Version 6.1.0  -  RELEASE   -
                                (GIT: $679e74b$)
                          ($2025-06-10 18:02:51 +0200$)


 With contributions from (in alphabetic order):
[Max-Planck-Institut fuer Kohlenforschung]                               
  Daniel Aravena         : Magnetic Suceptibility                        
  Michael Atanasov       : Ab Initio Ligand Field Theory (pilot matlab implementation)
  Alexander A. Auer      : GIAO ZORA, VPT2 properties, NMR spectrum      
  Ute Becker             : All parallelization in ORCA, NUMFREQ, NUMCALC 
  Giovanni Bistoni       : ED, misc. LED, open-shell LED, HFLD           
  Dmytro Bykov           : pre 5.0 version of the SCF Hessian            
  Marcos Casanova-Páez   : Triplet and SCS-CIS(D). UHF-(DLPNO)-IP/EA/STEOM-CCSD. UHF-CVS-IP/STEOM-CCSD   
  Vijay G. Chilkuri      : MRCI spin determinant printing, contributions to CSF-ICE 
  Pauline Colinet        : FMM embedding                                 
  Dipayan Datta          : RHF DLPNO-CCSD density                        
  Achintya Kumar Dutta   : EOM-CC, STEOM-CC                              
  Nicolas Foglia         : Exact transition moments, OPA infrastructure, MCD improvements    
  Dmitry Ganyushin       : Spin-Orbit,Spin-Spin,Magnetic field MRCI      
  Miquel Garcia-Rates    : C-PCM and meta-GGA Hessian, CCSD/C-PCM, Gaussian charge scheme 
  Tiago L. C. Gouveia    : GS-ROHF, GS-ROCIS                             
  Yang Guo               : DLPNO-NEVPT2, F12-NEVPT2, CIM, IAO-localization        
  Andreas Hansen         : Spin unrestricted coupled pair/coupled cluster methods 
  Ingolf Harden          : AUTO-CI MPn and infrastructure                
  Benjamin Helmich-Paris : MC-RPA, TRAH-(SCF,CASSCF), AVAS, COSX integrals, SCF dyn. polar., MC-PDFT, srDFT 
  Lee Huntington         : MR-EOM, pCC                                   
  Robert Izsak           : Overlap fitted RIJCOSX, COSX-SCS-MP3, EOM     
  Riya Kayal             : Wick's Theorem for AUTO-CI, AUTO-CI UHF-CCSDT 
  Emily Kempfer          : AUTO-CI RHF CISDT and CCSDT, approximate NEVPT4
  Christian Kollmar      : KDIIS, OOCD, Brueckner-CCSD(T), CCSD density, CASPT2, CASPT2-K, improved NEVPT2 
  Axel Koslowski         : Symmetry handling                             
  Simone Kossmann        : meta-GGA functionals, TD-DFT gradient, OOMP2, (MP2 Hessian; deprecated post 5.0) 
  Lucas Lang             : DCDCAS, Hyperfine gauge corrections, ICE-SOC+SSC
  Marvin Lechner         : AUTO-CI (C++ implementation), FIC-MRCC        
  Spencer Leger          : CASSCF response                               
  Dagmar Lenk            : GEPOL surface, SMD, ORCA-2-JSON               
  Dimitrios Liakos       : Extrapolation schemes; Compound Job, Property file
  Dimitrios Manganas     : Further ROCIS development; embedding schemes. LFT, Crystal Embedding 
  Dimitrios Pantazis     : SARC Basis sets                               
  Anastasios Papadopoulos: AUTO-CI, single reference methods and gradients 
  Taras Petrenko         : pre 6.0 DFT Hessian and TD-DFT gradient,  ECA, NRVS 
  Petra Pikulova         : Analytic Raman intensities                    
  Peter Pinski           : DLPNO-MP2, DLPNO-MP2 Gradient                 
  Shashank Vittal Rao    : ES-AILFT, MagRelax                            
  Christoph Reimann      : Effective Core Potentials                     
  Marius Retegan         : Local ZFS, SOC                                
  Christoph Riplinger    : Optimizer, TS searches, QM/MM, DLPNO-CCSD(T), (RO)-DLPNO pert. Triples 
  Michael Roemelt        : Original ROCIS implementation, recursive CI coupling coefficients
  Masaaki Saitow         : Open-shell DLPNO-CCSD energy and density      
  Barbara Sandhoefer     : DKH picture change effects                    
  Yorick L. A. Schmerwitz: GMF and freeze-and-release deltaSCF, NEB S-IDPP initial path                    
  Kantharuban Sivalingam : CASSCF convergence/infrastructure, NEVPT2, NEVPT3, NEVPT4(SD), FIC-MRCI and CEPA variants
  Bernardo de Souza      : ESD, SOC TD-DFT                               
  Georgi L. Stoychev     : AutoAux, RI-MP2 NMR, DLPNO-MP2 response, X2C  
  Van Anh Tran           : RI-MP2 g-tensors                              
  Willem Van den Heuvel  : Paramagnetic NMR                              
  Zikuan Wang            : NOTCH, Electric field optimization            
  Frank Wennmohs         : Technical directorship and infrastructure     
  Hang Xu                : AUTO-CI-Response properties                   
                                                                         
[FACCTs GmbH]                                                            
  Markus Bursch, Nicolas Foglia, Miquel Garcia-Rates, Ingolf Harden, Hagen Neugebauer, Anastasios Papadopoulos, 
  Christoph Riplinger, Bernardo de Souza, Georgi L. Stoychev                                                    
                                                                 
  APM, various basis sets, CI-OPT, improved COSX, DLPNO-Multilevel,           
  DOCKER, DRACO, updates on ESD, Fragmentator, GOAT, IRC, LR-CPCM, L-BFGS, MBIS, meta-GGA TD-DFT gradient, ML-optimized integration grids, 
  MM, NACMEs, nearIR, NEB, NEB-TS, NL-DFT gradient (VV10), 2- and 3-layer-ONIOM, interface openCOSMO-RS, QMMM,   
  Crystal-QMMM, RESP, rigid body optimization, SF, symmetry and pop. for TD-DFT, various functionals, SOLVATOR                                   
                                                                         
[Other institutions]                                                     
  V. Asgeirsson          : NEB                                           
  Christoph Bannwarth    : sTDA-DFT, sTD-DFT, PBEh-3c, B97-3c, D3        
  Giovanni Bistoni       : ETS/NOCV, ADLD/ADEX, COVALED                  
  Martin Brehm           : Molecular dynamics                            
  Ronald Cardenas        : ETS/NOCV                                      
  Martina Colucci        : COVALED                                       
  Sebastian Ehlert       : rSCAN, r2SCAN, r2SCAN-3c, D4, dhf basis sets  
  Marvin Friede          : D4 for Fr, Ra, Ac-Lr                          
  Lars Goerigk           : TD-DFT with DH, B97 family of functionals     
  Stefan Grimme          : VdW corrections, initial TS optimization, DFT functionals, gCP, sTDA/sTD-DF 
  Waldemar Hujo          : DFT-NL                                        
  H. Jonsson             : NEB                                           
  Holger Kruse           : gCP                                           
  Marcel Mueller         : wB97X-3c, vDZP basis set                      
  Hagen Neugebauer       : wr2SCAN, Native XTB                           
  Gianluca Regni         : ADLD/ADEX                                     
  Tobias Risthaus        : pre 6.0 range-separated hybrid DFT and stability analysis
  Lukas Wittmann         : regularized MP2, r2SCAN double-hybrids, wr2SCAN        
                                                                         
We gratefully acknowledge several colleagues who have allowed us to      
interface, adapt or use parts of their codes:                            
  Ed Valeev, F. Pavosevic, A. Kumar             : LibInt (2-el integral package), F12 methods 
  Garnet Chan, S. Sharma, J. Yang, R. Olivares  : DMRG                   
  Ulf Ekstrom                                   : XCFun DFT Library      
  Mihaly Kallay                                 : mrcc  (arbitrary order and MRCC methods)
  Frank Weinhold                                : gennbo (NPA and NBO analysis)           
  Simon Mueller                                 : openCOSMO-RS                            
  Christopher J. Cramer and Donald G. Truhlar   : smd solvation model                     
  S Lehtola, MJT Oliveira, MAL Marques          : LibXC Library                           
  Liviu Ungur et al                             : ANISO software                          


 Your calculation uses the libint2 library for the computation of 2-el integrals
 For citations please refer to: http://libint.valeyev.net

 Your ORCA version has been built with support for libXC version: 7.0.0
 For citations please refer to: https://libxc.gitlab.io

 This ORCA versions uses:
   CBLAS   interface :  Fast vector & matrix operations
   LAPACKE interface :  Fast linear algebra routines
   SCALAPACK package :  Parallel linear algebra routines
   Shared memory     :  Shared parallel matrices
   BLAS/LAPACK       :  OpenBLAS 0.3.29  USE64BITINT DYNAMIC_ARCH NO_AFFINITY Haswell SINGLE_THREADED
        Core in use  :  Haswell
   Copyright (c) 2011-2014, The OpenBLAS Project


  ***********************************
  * Starting time: Tue Jul 22 16:51:45 2025
  * Host name:     debian
  * Process ID:    116395
  * Working dir.:  /home/uni/mm/lab3
  ***********************************

Warning: RI is on but no J-basis has been assigned. Assigning Def2/J (nothing to worry about!)
================================================================================

----- Orbital basis set information -----
Your calculation utilizes the basis: 6-31G(d,p)
   H-He, Li-Ne : W. J. Hehre, R. Ditchfield and J.A. Pople, J. Chem. Phys. 56, 2257 (1972).
                 Note: He and Ne are unpublished basis sets taken from the Gaussian program.
                 Note: Li and B from J. D. Dill and J. A. Pople, J. Chem. Phys. 62, 2921 (1975).
   Na - Ar     : M. M. Francl, W. J. Pietro, W. J. Hehre, J. S. Binkley, M. S. Gordon, 
                 D. J. DeFrees and J. A. Pople, J. Chem. Phys. 77, 3654 (1982).
   K - Zn      : V. A. Rassolov, J. A. Pople, M. A. Ratner, and T. L. Windus, J. Chem. Phys. 109, 1223 (1998).

----- AuxJ basis set information -----
Your calculation utilizes the auxiliary basis: def2/J
   H-Rn: F. Weigend, Phys. Chem. Chem. Phys. 8, 1057 (2006).
   Fr-Lr: K. Eichkorn, F. Weigend, O. Treutler, R. Ahlrichs; Theor. Chem. Acc. 97, 119 (1997).

================================================================================
                                        WARNINGS
                       Please study these warnings very carefully!
================================================================================


WARNING: Geometry Optimization
  ===> : Switching off AutoStart
         For restart on a previous wavefunction, please use MOREAD

================================================================================
                                       INPUT FILE
================================================================================
NAME = h2o2-scan.inp
|  1> ! B3LYP 6-31G(d,p) opt 
|  2> 
|  3> %pal
|  4>   nprocs 6
|  5> end
|  6> 
|  7> %geom
|  8>   Scan
|  9>     D 2 0 1 3 = 90, 180, 10
| 10>   end
| 11> end
| 12> 
| 13> * xyz 0 1  
| 14> O      1.898664    1.443259    0.020666
| 15> O      0.753450    0.429302   -0.020679
| 16> H      1.709786    2.306435   -0.524286
| 17> H      0.942328   -0.433874    0.524274
| 18> *
| 19> 
| 20> 
| 21>                          ****END OF INPUT****
================================================================================

                       ******************************
                       *    Relaxed Surface Scan    *
                       ******************************

        Dihedral (  3,   1,   0,   2):   range=  90.00000000 .. 180.00000000  steps =   10

There is 1 parameter to be scanned.
There will be   10 constrained geometry optimizations.


         *************************************************************
         *               RELAXED SURFACE SCAN STEP   1               *
         *                                                           *
         *   Dihedral (  3,   1,   0,   2)  :  90.00000000           *
         *************************************************************

Geometry optimization settings:
Update method            Update   .... BFGS
Choice of coordinates    CoordSys .... (2022) Redundant Internals
Initial Hessian          InHess   .... Almloef's Model
Max. no of cycles        MaxIter  .... 50

Convergence Tolerances:
Energy Change            TolE     ....  5.0000e-06 Eh
Max. Gradient            TolMAXG  ....  3.0000e-04 Eh/bohr
RMS Gradient             TolRMSG  ....  1.0000e-04 Eh/bohr
Max. Displacement        TolMAXD  ....  4.0000e-03 bohr
RMS Displacement         TolRMSD  ....  2.0000e-03 bohr
Strict Convergence                .... False

------------------------------------------------------------------------------
                        ORCA OPTIMIZATION COORDINATE SETUP
------------------------------------------------------------------------------

The optimization will be done in redundant internal coordinates (2022)
Making redundant internal coordinates   ...  (2022 redundants) done
Evaluating the initial hessian          ...  (Almloef) done
Evaluating the coordinates              ...  done
Calculating the B-matrix                .... done
Calculating the G-matrix                .... done
The number of degrees of freedom        ....    6
Storing new coordinates                 .... done

    -----------------------------------------------------------------
                    Redundant Internal Coordinates


    -----------------------------------------------------------------
         Definition                    Initial Value    Approx d2E/dq
    -----------------------------------------------------------------
      1. B(O   1,O   0)                  1.5301         0.299520   
      2. B(H   2,O   0)                  1.4080         0.390221   
      3. B(H   3,O   1)                  1.4080         0.390220   
      4. A(O   1,O   0,H   2)          107.1805         0.310562   
      5. A(O   0,O   1,H   3)          107.1805         0.310562   
      6. D(H   3,O   1,O   0,H   2)     90.0000         0.010000 C 
    -----------------------------------------------------------------

Number of atoms                         .... 4
Number of degrees of freedom            .... 6


         *************************************************************
         *                GEOMETRY OPTIMIZATION CYCLE   1            *
         *************************************************************
---------------------------------
CARTESIAN COORDINATES (ANGSTROEM)
---------------------------------
  O      1.706444    1.644639    0.406263
  O      0.561230    0.630682    0.364918
  H      1.902006    2.105056   -0.909883
  H      1.134548   -0.635254    0.138677

----------------------------
CARTESIAN COORDINATES (A.U.)
----------------------------
  NO LB      ZA    FRAG     MASS         X           Y           Z
   0 O     8.0000    0    15.999    3.224712    3.107917    0.767726
   1 O     8.0000    0    15.999    1.060572    1.191815    0.689595
   2 H     1.0000    0     1.008    3.594270    3.977979   -1.719430
   3 H     1.0000    0     1.008    2.143984   -1.200456    0.262062

--------------------------------
INTERNAL COORDINATES (ANGSTROEM)
--------------------------------
 O      0   0   0     0.000000000000     0.00000000     0.00000000
 O      1   0   0     1.530141598895     0.00000000     0.00000000
 H      1   2   0     1.038133126417   113.61715755     0.00000000
 H      2   1   3     1.038133651352   113.61714326   180.00004884

---------------------------
INTERNAL COORDINATES (A.U.)
---------------------------
 O      0   0   0     0.000000000000     0.00000000     0.00000000
 O      1   0   0     2.891548568033     0.00000000     0.00000000
 H      1   2   0     1.961787299479   113.61715755     0.00000000
 H      2   1   3     1.961788291463   113.61714326   180.00004884

---------------------
BASIS SET INFORMATION
---------------------
There are 2 groups of distinct atoms

 Group   1 Type O   : 10s4p1d contracted to 3s2p1d pattern {631/31/1}
 Group   2 Type H   : 4s1p contracted to 2s1p pattern {31/1}

Atom   0O    basis set group =>   1
Atom   1O    basis set group =>   1
Atom   2H    basis set group =>   2
Atom   3H    basis set group =>   2
---------------------------------
AUXILIARY/J BASIS SET INFORMATION
---------------------------------
There are 2 groups of distinct atoms

 Group   1 Type O   : 12s5p4d2f1g contracted to 6s4p3d1f1g pattern {711111/2111/211/2/1}
 Group   2 Type H   : 5s2p1d contracted to 3s1p1d pattern {311/2/1}

Atom   0O    basis set group =>   1
Atom   1O    basis set group =>   1
Atom   2H    basis set group =>   2
Atom   3H    basis set group =>   2


           ************************************************************
           *        Program running with 6 parallel MPI-processes     *
           *              working on a common directory               *
           ************************************************************
------------------------------------------------------------------------------
                             ORCA STARTUP CALCULATIONS
                           -- RI-GTO INTEGRALS CHOSEN --
------------------------------------------------------------------------------
------------------------------------------------------------------------------
                   ___                                                        
                  /   \      - P O W E R E D   B Y -                         
                 /     \                                                     
                 |  |  |   _    _      __       _____    __    __             
                 |  |  |  | |  | |    /  \     |  _  \  |  |  /  |          
                  \  \/   | |  | |   /    \    | | | |  |  | /  /          
                 / \  \   | |__| |  /  /\  \   | |_| |  |  |/  /          
                |  |  |   |  __  | /  /__\  \  |    /   |      \           
                |  |  |   | |  | | |   __   |  |    \   |  |\   \          
                \     /   | |  | | |  |  |  |  | |\  \  |  | \   \       
                 \___/    |_|  |_| |__|  |__|  |_| \__\ |__|  \__/        
                                                                              
                      - O R C A' S   B I G   F R I E N D -                    
                                      &                                       
                       - I N T E G R A L  F E E D E R -                       
                                                                              
 v1 FN, 2020, v2 2021, v3 2022-2024                                           
------------------------------------------------------------------------------


----------------------
SHARK INTEGRAL PACKAGE
----------------------

Number of atoms                             ...      4
Number of basis functions                   ...     38
Number of shells                            ...     18
Maximum angular momentum                    ...      2
Integral batch strategy                     ... SHARK/LIBINT Hybrid
RI-J (if used) integral strategy            ... SPLIT-RIJ (Revised 2003 algorithm where possible)
Printlevel                                  ...      1
Contraction scheme used                     ... SEGMENTED contraction
Prescreening option                         ... SCHWARTZ
   Thresh                                   ... 2.500e-11
   Tcut                                     ... 2.500e-12
   Tpresel                                  ... 2.500e-12 
Coulomb Range Separation                    ... NOT USED
Exchange Range Separation                   ... NOT USED
Multipole approximations                    ... NOT USED
Finite Nucleus Model                        ... NOT USED
CABS basis                                  ... NOT available
Auxiliary Coulomb fitting basis             ... AVAILABLE
   # of basis functions in Aux-J            ...    120
   # of shells in Aux-J                     ...     40
   Maximum angular momentum in Aux-J        ...      4
Auxiliary J/K fitting basis                 ... NOT available
Auxiliary Correlation fitting basis         ... NOT available
Auxiliary 'external' fitting basis          ... NOT available

Checking pre-screening integrals            ... done (  0.0 sec) Dimension = 18
   => SHARK Basis and OBASIS are compatible. Storing Pre-screening
Shell pair information
Shell pair cut-off parameter TPreSel        ...   2.5e-12
Total number of shell pairs                 ...       171
Shell pairs after pre-screening             ...       171
Total number of primitive shell pairs       ...       868
Primitive shell pairs kept                  ...       735
          la=0 lb=0:     55 shell pairs
          la=1 lb=0:     60 shell pairs
          la=1 lb=1:     21 shell pairs
          la=2 lb=0:     20 shell pairs
          la=2 lb=1:     12 shell pairs
          la=2 lb=2:      3 shell pairs

Checking whether 4 symmetric matrices of dimension 38 fit in memory
:Max Core in MB      =   4096.00
 MB in use           =      3.41
 MB left             =   4092.59
 MB needed           =      0.02
 Data fit in memory  = YES
Calculating RI/J V-Matrix + Cholesky decomp.... done (  0.0 sec)
Calculating Nuclear repulsion               ... done (  0.0 sec) ENN=     31.900307781747 Eh

Diagonalization of the overlap matrix:
Smallest eigenvalue                        ... 3.192e-02
Time for diagonalization                   ...    0.000 sec
Threshold for overlap eigenvalues          ... 1.000e-07
Number of eigenvalues below threshold      ... 0
Time for construction of square roots      ...    0.000 sec
Total time needed                          ...    0.001 sec

-------------------
DFT GRID GENERATION
-------------------

General Integration Accuracy     IntAcc      ... 4.388
Radial Grid Type                 RadialGrid  ... OptM3 with GC (2021)
Angular Grid (max. ang.)         AngularGrid ... 4 (Lebedev-302)
Angular grid pruning method      GridPruning ... 4 (adaptive)
Weight generation scheme         WeightScheme... mBecke (2022)
Basis function cutoff            BFCut       ... 1.0000e-11
Integration weight cutoff        WCut        ... 1.0000e-14
Partially contracted basis set               ... off
Rotationally invariant grid construction     ... off
Angular grids for H and He will be reduced by one unit

Total number of grid points                  ...    18900
Total number of batches                      ...      297
Average number of points per batch           ...       63
Average number of grid points per atom       ...     4725

--------------------
COSX GRID GENERATION
--------------------

GRIDX 1
-------
General Integration Accuracy     IntAcc      ... 3.816
Radial Grid Type                 RadialGrid  ... OptM3 with GC (2021)
Angular Grid (max. ang.)         AngularGrid ... 1 (Lebedev-50)
Angular grid pruning method      GridPruning ... 4 (adaptive)
Weight generation scheme         WeightScheme... mBecke (2022)
Basis function cutoff            BFCut       ... 1.0000e-11
Integration weight cutoff        WCut        ... 1.0000e-14
Partially contracted basis set               ... on
Rotationally invariant grid construction     ... off
Angular grids for H and He will be reduced by one unit

Total number of grid points                  ...     2431
Total number of batches                      ...       20
Average number of points per batch           ...      121
Average number of grid points per atom       ...      608
UseSFitting                                  ... on

GRIDX 2
-------
General Integration Accuracy     IntAcc      ... 4.020
Radial Grid Type                 RadialGrid  ... OptM3 with GC (2021)
Angular Grid (max. ang.)         AngularGrid ... 2 (Lebedev-110)
Angular grid pruning method      GridPruning ... 4 (adaptive)
Weight generation scheme         WeightScheme... mBecke (2022)
Basis function cutoff            BFCut       ... 1.0000e-11
Integration weight cutoff        WCut        ... 1.0000e-14
Partially contracted basis set               ... on
Rotationally invariant grid construction     ... off
Angular grids for H and He will be reduced by one unit

Total number of grid points                  ...     5392
Total number of batches                      ...       45
Average number of points per batch           ...      119
Average number of grid points per atom       ...     1348
UseSFitting                                  ... on

GRIDX 3
-------
General Integration Accuracy     IntAcc      ... 4.338
Radial Grid Type                 RadialGrid  ... OptM3 with GC (2021)
Angular Grid (max. ang.)         AngularGrid ... 3 (Lebedev-194)
Angular grid pruning method      GridPruning ... 4 (adaptive)
Weight generation scheme         WeightScheme... mBecke (2022)
Basis function cutoff            BFCut       ... 1.0000e-11
Integration weight cutoff        WCut        ... 1.0000e-14
Partially contracted basis set               ... on
Rotationally invariant grid construction     ... off
Angular grids for H and He will be reduced by one unit

Total number of grid points                  ...    11977
Total number of batches                      ...       96
Average number of points per batch           ...      124
Average number of grid points per atom       ...     2994
UseSFitting                                  ... on
Grids setup in   0.1 sec
Initializing property integral containers    ... done (  0.0 sec)

SHARK setup successfully completed in   0.2 seconds

Maximum memory used throughout the entire STARTUP-calculation: 9.7 MB


           ************************************************************
           *        Program running with 6 parallel MPI-processes     *
           *              working on a common directory               *
           ************************************************************
-------------------------------------------------------------------------------
                                 ORCA GUESS
                   Start orbitals & Density for SCF / CASSCF
-------------------------------------------------------------------------------

------------
SCF SETTINGS
------------
Hamiltonian:
 Density Functional     Method          .... DFT(GTOs)
 Exchange Functional    Exchange        .... B88
   X-Alpha parameter    XAlpha          ....  0.666667
   Becke's b parameter  XBeta           ....  0.004200
 Correlation Functional Correlation     .... LYP
 LDA part of GGA corr.  LDAOpt          .... VWN-5
 Gradients option       PostSCFGGA      .... off
 Hybrid DFT is turned on
   Fraction HF Exchange ScalHFX         ....  0.200000
   Scaling of DF-GGA-X  ScalDFX         ....  0.720000
   Scaling of DF-GGA-C  ScalDFC         ....  0.810000
   Scaling of DF-LDA-C  ScalLDAC        ....  1.000000
   Perturbative correction              ....  0.000000
   NL short-range parameter             ....  4.800000
 RI-approximation to the Coulomb term is turned on
   Number of AuxJ basis functions       .... 120
   RIJ-COSX (HFX calculated with COS-X)).... on


General Settings:
 Integral files         IntName         .... h2o2-scan
 Hartree-Fock type      HFTyp           .... RHF
 Total Charge           Charge          ....    0
 Multiplicity           Mult            ....    1
 Number of Electrons    NEL             ....   18
 Basis Dimension        Dim             ....   38
 Nuclear Repulsion      ENuc            ....     31.9003077817 Eh

Convergence Acceleration:
 AO-DIIS                CNVDIIS         .... on
   Start iteration      DIISMaxIt       ....    12
   Startup error        DIISStart       ....  0.200000
   # of expansion vecs  DIISMaxEq       ....     5
   Bias factor          DIISBfac        ....   1.050
   Max. coefficient     DIISMaxC        ....  10.000
 MO-DIIS                CNVKDIIS        .... off
 Trust-Rad. Augm. Hess. CNVTRAH         .... auto
   Auto Start mean grad. ratio tolernc. ....  1.125000
   Auto Start start iteration           ....    50
   Auto Start num. interpolation iter.  ....    10
   Max. Number of Micro iterations      ....    24
   Max. Number of Macro iterations      .... Maxiter - #DIIS iter
   Number of Davidson start vectors     ....     2
   Converg. threshold    (grad. norm)   ....   1.000e-05
   Grad. Scal. Fac. for Micro threshold ....   0.100
   Minimum threshold for Micro iter.    ....   1.000e-02
   NR start threshold (gradient norm)   ....   1.000e-04
   Initial trust radius                 ....   0.400
   Minimum AH scaling param. (alpha)    ....   1.000
   Maximum AH scaling param. (alpha)    .... 1000.000
   Quad. conv. algorithm                .... NR
   White noise on init. David. guess    .... on
   Maximum white noise                  ....   0.010
   Pseudo random numbers                .... off
   Inactive MOs                         .... canonical
   Orbital update algorithm             .... Taylor
   Preconditioner                       .... Diag
   Full preconditioner red. dimension   ....   250
 SOSCF                 CNVSOSCF           .... on
   Start iteration     SOSCFMaxIt         ....   150
   Startup grad/error  SOSCFStart         ....  0.003300
   Hessian update      SOSCFHessUp        .... L-BFGS
   Autom. constraints  SOSCFAutoConstrain .... off
 Level Shifting         CNVShift        .... on
   Level shift para.    LevelShift      ....    0.2500
   Turn off err/grad.   ShiftErr        ....    0.0010
 Zerner damping         CNVZerner       .... off
 Static damping         CNVDamp         .... on
   Fraction old density DampFac         ....    0.7000
   Max. Damping (<1)    DampMax         ....    0.9800
   Min. Damping (>=0)   DampMin         ....    0.0000
   Turn off err/grad.   DampErr         ....    0.1000

SCF Procedure:
 Maximum # iterations   MaxIter         ....   125
 SCF integral mode      SCFMode         .... Direct
   Integral package                     .... SHARK and LIBINT hybrid scheme
 Reset frequency        DirectResetFreq ....    20
 Integral Threshold     Thresh          ....  2.500e-11 Eh
 Primitive CutOff       TCut            ....  2.500e-12 Eh

Convergence Tolerance:
 Convergence Check Mode ConvCheckMode   .... Total+1el-Energy
 Convergence forced     ConvForced      .... 0
 Energy Change          TolE            ....  1.000e-08 Eh
 1-El. energy change                    ....  1.000e-05 Eh
 Orbital Gradient       TolG            ....  1.000e-05
 Orbital Rotation angle TolX            ....  1.000e-05
 DIIS Error             TolErr          ....  5.000e-07

------------------------------
INITIAL GUESS: MODEL POTENTIAL
------------------------------
Loading Hartree-Fock densities                     ... done
Calculating cut-offs                               ... done
Initializing the effective Hamiltonian             ... done
Setting up the integral package (SHARK)            ... done
Starting the Coulomb interaction                   ... done (   0.0 sec)
Making the grid                                    ... done (   0.0 sec)
Mapping shells                                     ... done
Starting the XC term evaluation                    ... done (   0.0 sec)
  promolecular density results
     # of electrons  =     17.998590622
     EX              =    -16.778372995
     EC              =     -0.616760506
     EX+EC           =    -17.395133501
Transforming the Hamiltonian                       ... done (   0.0 sec)
Diagonalizing the Hamiltonian                      ... done (   0.0 sec)
Back transforming the eigenvectors                 ... done (   0.0 sec)
Now organizing SCF variables                       ... done
                      ------------------
                      INITIAL GUESS DONE (   0.0 sec)
                      ------------------
             **** ENERGY FILE WAS UPDATED (h2o2-scan.en.tmp) ****
Finished Guess after   0.3 sec
Maximum memory used throughout the entire GUESS-calculation: 5.6 MB


           ************************************************************
           *        Program running with 6 parallel MPI-processes     *
           *              working on a common directory               *
           ************************************************************

-------------------------------------------------------------------------------------------
                                      ORCA LEAN-SCF
                              memory conserving SCF solver
-------------------------------------------------------------------------------------------

----------------------------------------D-I-I-S--------------------------------------------
Iteration    Energy (Eh)           Delta-E    RMSDP     MaxDP     DIISErr   Damp  Time(sec)
-------------------------------------------------------------------------------------------
               ***  Starting incremental Fock matrix formation  ***
    1    -151.2461423979339088     0.00e+00  1.84e-02  7.88e-02  2.14e-01  0.700   0.1
    2    -151.2887250445241136    -4.26e-02  1.26e-02  5.24e-02  9.08e-02  0.700   0.1
                               ***Turning on AO-DIIS***
    3    -151.3008111872841823    -1.21e-02  5.19e-03  1.78e-02  2.53e-02  0.700   0.0
    4    -151.3078968966511582    -7.09e-03  7.65e-03  2.22e-02  2.01e-02  0.000   0.0
    5    -151.3262147450906241    -1.83e-02  2.54e-03  9.90e-03  1.92e-02  0.000   0.0
    6    -151.3268203428845879    -6.06e-04  1.04e-03  4.17e-03  5.92e-03  0.000   0.0
                              *** Initializing SOSCF ***
---------------------------------------S-O-S-C-F--------------------------------------
Iteration    Energy (Eh)           Delta-E    RMSDP     MaxDP     MaxGrad    Time(sec)
--------------------------------------------------------------------------------------
    7    -151.3268938862703692    -7.35e-05  4.47e-04  1.67e-03  1.68e-03     0.1
               *** Restarting incremental Fock matrix formation ***
    8    -151.3268774670080177     1.64e-05  5.84e-04  1.97e-03  4.78e-04     0.1
    9    -151.3268766534123984     8.14e-07  2.22e-04  9.82e-04  6.52e-04     0.1
   10    -151.3268804974689203    -3.84e-06  8.32e-05  2.60e-04  1.02e-04     0.1
   11    -151.3268806096291428    -1.12e-07  1.97e-05  5.30e-05  2.66e-05     0.1
   12    -151.3268806224675416    -1.28e-08  9.88e-06  3.90e-05  1.42e-05     0.1
   13    -151.3268806190975795     3.37e-09  7.06e-06  2.64e-05  3.16e-05     0.1
                 **** Energy Check signals convergence ****

               *****************************************************
               *                     SUCCESS                       *
               *           SCF CONVERGED AFTER  13 CYCLES          *
               *****************************************************

Recomputing exchange energy using gridx3       ... done (    0.115 sec)
Old exchange energy                            :     -3.336685738 Eh
New exchange energy                            :     -3.336693588 Eh
Exchange energy change after final integration :     -0.000007850 Eh
Total energy after final integration           :   -151.326888473 Eh
             **** ENERGY FILE WAS UPDATED (h2o2-scan.en.tmp) ****

----------------
TOTAL SCF ENERGY
----------------

Total Energy       :       -151.32688847321404 Eh           -4117.81398 eV

Components:
Nuclear Repulsion  :         31.90030778174660 Eh             868.05151 eV
Electronic Energy  :       -183.22718840498476 Eh           -4985.86527 eV
One Electron Energy:       -272.00791006898532 Eh           -7401.71153 eV
Two Electron Energy:         88.78072166400055 Eh            2415.84626 eV

Virial components:
Potential Energy   :       -301.09117360439831 Eh           -8193.10736 eV
Kinetic Energy     :        149.76428513118427 Eh            4075.29338 eV
Virial Ratio       :          2.01043375154938

DFT components:
N(Alpha)           :        8.999999660727 electrons
N(Beta)            :        8.999999660727 electrons
N(Total)           :       17.999999321454 electrons
E(X)               :      -13.393057801633 Eh       
E(C)               :       -0.732039647357 Eh       
E(XC)              :      -14.125097448991 Eh       

---------------
SCF CONVERGENCE
---------------

  Last Energy change         ...   -3.3700e-09  Tolerance :   1.0000e-08
  Last MAX-Density change    ...    2.6442e-05  Tolerance :   1.0000e-07
  Last RMS-Density change    ...    7.0574e-06  Tolerance :   5.0000e-09
  Last DIIS Error            ...    1.6850e-03  Tolerance :   5.0000e-07
  Last Orbital Gradient      ...    3.1607e-05  Tolerance :   1.0000e-05
  Last Orbital Rotation      ...    1.8084e-05  Tolerance :   1.0000e-05


----------------
ORBITAL ENERGIES
----------------

  NO   OCC          E(Eh)            E(eV) 
   0   2.0000     -19.228794      -523.2421 
   1   2.0000     -19.228791      -523.2420 
   2   2.0000      -1.033472       -28.1222 
   3   2.0000      -0.827972       -22.5303 
   4   2.0000      -0.459548       -12.5049 
   5   2.0000      -0.415055       -11.2942 
   6   2.0000      -0.392395       -10.6776 
   7   2.0000      -0.286201        -7.7879 
   8   2.0000      -0.283129        -7.7043 
   9   0.0000      -0.070792        -1.9264 
  10   0.0000      -0.061487        -1.6731 
  11   0.0000       0.014554         0.3960 
  12   0.0000       0.644479        17.5372 
  13   0.0000       0.687276        18.7017 
  14   0.0000       0.832869        22.6635 
  15   0.0000       0.858094        23.3499 
  16   0.0000       0.907195        24.6860 
  17   0.0000       0.968251        26.3474 
  18   0.0000       1.029215        28.0064 
  19   0.0000       1.067958        29.0606 
*Only the first 10 virtual orbitals were printed.

                    ********************************
                    * MULLIKEN POPULATION ANALYSIS *
                    ********************************

-----------------------
MULLIKEN ATOMIC CHARGES
-----------------------
   0 O :   -0.257710
   1 O :   -0.257730
   2 H :    0.257713
   3 H :    0.257727
Sum of atomic charges:    0.0000000

--------------------------------
MULLIKEN REDUCED ORBITAL CHARGES
--------------------------------
  0 O s       :     3.951007  s :     3.951007
      pz      :     1.344786  p :     4.284418
      px      :     1.475042
      py      :     1.464591
      dz2     :     0.006090  d :     0.022284
      dxz     :     0.002910
      dyz     :     0.003349
      dx2y2   :     0.002687
      dxy     :     0.007249

  1 O s       :     3.951007  s :     3.951007
      pz      :     1.939049  p :     4.284438
      px      :     1.232592
      py      :     1.112796
      dz2     :     0.003409  d :     0.022285
      dxz     :     0.001966
      dyz     :     0.001449
      dx2y2   :     0.005911
      dxy     :     0.009549

  2 H s       :     0.733374  s :     0.733374
      pz      :     0.005762  p :     0.008913
      px      :     0.001322
      py      :     0.001828

  3 H s       :     0.733361  s :     0.733361
      pz      :     0.001774  p :     0.008912
      px      :     0.001769
      py      :     0.005370



                     *******************************
                     * LOEWDIN POPULATION ANALYSIS *
                     *******************************

----------------------
LOEWDIN ATOMIC CHARGES
----------------------
   0 O :   -0.222971
   1 O :   -0.222984
   2 H :    0.222973
   3 H :    0.222982

-------------------------------
LOEWDIN REDUCED ORBITAL CHARGES
-------------------------------
  0 O s       :     3.806615  s :     3.806615
      pz      :     1.355893  p :     4.370665
      px      :     1.514098
      py      :     1.500674
      dz2     :     0.010082  d :     0.045691
      dxz     :     0.006203
      dyz     :     0.007017
      dx2y2   :     0.005593
      dxy     :     0.016796

  1 O s       :     3.806613  s :     3.806613
      pz      :     1.932962  p :     4.370680
      px      :     1.284882
      py      :     1.152836
      dz2     :     0.006925  d :     0.045691
      dxz     :     0.003264
      dyz     :     0.002986
      dx2y2   :     0.013024
      dxy     :     0.019493

  2 H s       :     0.755714  s :     0.755714
      pz      :     0.014778  p :     0.021313
      px      :     0.002619
      py      :     0.003916

  3 H s       :     0.755705  s :     0.755705
      pz      :     0.003647  p :     0.021313
      px      :     0.004060
      py      :     0.013605



                      *****************************
                      * MAYER POPULATION ANALYSIS *
                      *****************************

  NA   - Mulliken gross atomic population
  ZA   - Total nuclear charge
  QA   - Mulliken gross atomic charge
  VA   - Mayer's total valence
  BVA  - Mayer's bonded valence
  FA   - Mayer's free valence

  ATOM       NA         ZA         QA         VA         BVA        FA
  0 O      8.2577     8.0000    -0.2577     1.9290     1.9290     0.0000
  1 O      8.2577     8.0000    -0.2577     1.9290     1.9290     0.0000
  2 H      0.7423     1.0000     0.2577     0.9228     0.9228     0.0000
  3 H      0.7423     1.0000     0.2577     0.9228     0.9228     0.0000

  Mayer bond orders larger than 0.100000
B(  0-O ,  1-O ) :   1.0062 B(  0-O ,  2-H ) :   0.8766 B(  1-O ,  3-H ) :   0.8766 


-------
TIMINGS
-------

Total SCF time: 0 days 0 hours 0 min 1 sec 

Total time                  ....       1.475 sec
Sum of individual times     ....       1.362 sec  ( 92.3%)

SCF preparation             ....       0.296 sec  ( 20.1%)
Fock matrix formation       ....       0.971 sec  ( 65.8%)
  Startup                   ....       0.001 sec  (  0.1% of F)
  Split-RI-J                ....       0.057 sec  (  5.9% of F)
  Chain of spheres X        ....       0.669 sec  ( 68.8% of F)
  XC integration            ....       0.294 sec  ( 30.3% of F)
    XC Preparation          ....       0.000 sec  (  0.0% of XC)
    Basis function eval.    ....       0.102 sec  ( 34.6% of XC)
    Density eval.           ....       0.040 sec  ( 13.5% of XC)
    XC-Functional eval.     ....       0.041 sec  ( 14.0% of XC)
    XC-Potential eval.      ....       0.028 sec  (  9.6% of XC)
Diagonalization             ....       0.000 sec  (  0.0%)
Density matrix formation    ....       0.008 sec  (  0.6%)
Total Energy calculation    ....       0.006 sec  (  0.4%)
Population analysis         ....       0.003 sec  (  0.2%)
Orbital Transformation      ....       0.026 sec  (  1.8%)
Orbital Orthonormalization  ....       0.000 sec  (  0.0%)
DIIS solution               ....       0.036 sec  (  2.4%)
SOSCF solution              ....       0.015 sec  (  1.0%)
Finished LeanSCF after   1.5 sec

Maximum memory used throughout the entire LEANSCF-calculation: 5.1 MB

-------------------------   --------------------
FINAL SINGLE POINT ENERGY      -151.326888473214
-------------------------   --------------------



           ************************************************************
           *        Program running with 6 parallel MPI-processes     *
           *              working on a common directory               *
           ************************************************************
------------------------------------------------------------------------------
                         ORCA SCF GRADIENT CALCULATION
------------------------------------------------------------------------------

Nuc. rep. gradient        (SHARK) ... done (  0.0 sec)
HCore & Overlap gradient  (SHARK) ... done (  0.0 sec)
Split-RIJ-J gradient      (SHARK) ... done (  0.1 sec)
done (  0.2 sec)
XC gradient                       ... done (  0.0 sec)

------------------
CARTESIAN GRADIENT
------------------

   1   O   :    0.023512547    0.008629475    0.091767657
   2   O   :   -0.078916135    0.049424293    0.019391473
   3   H   :    0.018803834    0.037337742   -0.094673632
   4   H   :    0.036599754   -0.095391509   -0.016485498

Difference to translation invariance:
           :   -0.0000000000    0.0000000000    0.0000000000

Difference to rotation invariance:
           :   -0.0000119855    0.0000274915    0.0000431585

Norm of the Cartesian gradient     ...    0.1987883256
RMS gradient                       ...    0.0573852467
MAX gradient                       ...    0.0953915094

-------
TIMINGS
-------

Total SCF gradient time     ....        0.299 sec

Densities                   ....       0.000 sec  (  0.0%)
One electron gradient       ....       0.005 sec  (  1.6%)
RI-J Coulomb gradient       ....       0.067 sec  ( 22.3%)
COSX gradient               ....       0.183 sec  ( 61.1%)
XC gradient                 ....       0.045 sec  ( 15.0%)

Maximum memory used throughout the entire SCFGRAD-calculation: 6.6 MB
------------------------------------------------------------------------------
                         ORCA GEOMETRY RELAXATION STEP
------------------------------------------------------------------------------

Reading the OPT-File                    .... done
Getting information on internals        .... done
Copying old internal coords+grads       .... done
Making the new internal coordinates     .... (2022 redundants) done
Validating the new internal coordinates .... (2022 redundants) done
Calculating the B-matrix                .... done
Calculating the G,G- and P matrices     .... done
Transforming gradient to internals      .... done
Projecting the internal gradient        .... done
Number of atoms                         ....   4
Number of internal coordinates          ....   6
Current Energy                          ....  -151.326888473 Eh
Current gradient norm                   ....     0.198788326 Eh/bohr
Maximum allowed component of the step   ....  0.300
Current trust radius                    ....  0.300
Evaluating the initial hessian          ....  (Almloef) done
Projecting the Hessian                  .... done
Forming the augmented Hessian           .... done
Diagonalizing the augmented Hessian     .... done
Last element of RFO vector              ....  0.815841912
Lowest eigenvalues of augmented Hessian:
 -0.111556641  0.100278511  0.191102451  0.251904709  0.254448941
Length of the computed step             ....  0.708807662
Warning: the length of the step is outside the trust region - taking restricted step instead
The input lambda is                     ....     0.099278
   iter:   5  x=    0.092684  g=329050.618624 f(x)=   832.954177
   iter:  10  x=    0.042642  g=  752.240773 f(x)=    14.437697
   iter:  15  x=   -0.271838  g=    2.184853 f(x)=     0.216540
   iter:  20  x=   -0.412347  g=    0.341801 f(x)=     0.000000
The output lambda is                    ....    -0.412347 (22 iterations)
The final length of the internal step   ....  0.300000000
Converting the step to Cartesian space:
 Initial RMS(Int)=    0.1224744871
Transforming coordinates:
 Iter   0:  RMS(Cart)=    0.0926287862 RMS(Int)=    0.1221991374
 Iter   5:  RMS(Cart)=    0.0000000335 RMS(Int)=    0.0000000301
Imposing constraints:
 Iter   0:  RMS(Cart)=    0.0000000290 RMS(Int)=    0.0000000032
CONVERGED
done
Storing new coordinates                 .... done

                                .--------------------.
          ----------------------|Geometry convergence|-------------------------
          Item                value                   Tolerance       Converged
          ---------------------------------------------------------------------
          RMS gradient        0.0654624333            0.0001000000      NO
          MAX gradient        0.1033162161            0.0003000000      NO
          RMS step            0.1224744871            0.0020000000      NO
          MAX step            0.2015432225            0.0040000000      NO
          -------------------------------------------------------------------------
          ........................................................
          Max(Bonds)      0.1067      Max(Angles)    1.38
          Max(Dihed)        0.00      Max(Improp)    0.00
          ---------------------------------------------------------------------

The optimization has not yet converged - more geometry cycles are needed


    ---------------------------------------------------------------------------
                         Redundant Internal Coordinates
                            (Angstroem and degrees)

        Definition                    Value    dE/dq     Step     New-Value
    ----------------------------------------------------------------------------
     1. B(O   1,O   0)                1.5301  0.062058 -0.0461    1.4840   
     2. B(H   2,O   0)                1.4080  0.103316 -0.1067    1.3014   
     3. B(H   3,O   1)                1.4080  0.103316 -0.1067    1.3014   
     4. A(O   1,O   0,H   2)          107.18  0.015999   -1.38    105.80   
     5. A(O   0,O   1,H   3)          107.18  0.016016   -1.38    105.80   
     6. D(H   3,O   1,O   0,H   2)     90.00 -0.000038    0.00     90.00 C 
    ----------------------------------------------------------------------------

Geometry step timings:
Preparation and reading OPT file:      0.000 s ( 0.274 %)
Internal coordinates            :      0.000 s ( 0.226 %)
B/P matrices and projection     :      0.000 s ( 1.298 %)
Hessian update/contruction      :      0.000 s ( 0.976 %)
Making the step                 :      0.000 s ( 0.798 %)
Converting the step to Cartesian:      0.000 s ( 0.393 %)
Storing new data                :      0.000 s ( 0.238 %)
Checking convergence            :      0.000 s ( 0.369 %)
Final printing                  :      0.008 s (95.393 %)
Total time                      :      0.008 s

Time for energy+gradient        :      6.396 s
Time for complete geometry iter :      7.573 s

         *************************************************************
         *                GEOMETRY OPTIMIZATION CYCLE   2            *
         *************************************************************
---------------------------------
CARTESIAN COORDINATES (ANGSTROEM)
---------------------------------
  O      1.702879    1.614943    0.379437
  O      0.591365    0.632527    0.338432
  H      1.861257    2.022179   -0.846364
  H      1.148728   -0.524528    0.128470

----------------------------
CARTESIAN COORDINATES (A.U.)
----------------------------
  NO LB      ZA    FRAG     MASS         X           Y           Z
   0 O     8.0000    0    15.999    3.217975    3.051801    0.717032
   1 O     8.0000    0    15.999    1.117518    1.195303    0.639544
   2 H     1.0000    0     1.008    3.517265    3.821364   -1.599396
   3 H     1.0000    0     1.008    2.170780   -0.991213    0.242773

--------------------------------
INTERNAL COORDINATES (ANGSTROEM)
--------------------------------
 O      0   0   0     0.000000000000     0.00000000     0.00000000
 O      1   0   0     1.484010171222     0.00000000     0.00000000
 H      1   2   0     1.301350143515   105.80053087     0.00000000
 H      2   1   3     1.301350546662   105.79907245    89.99999986

---------------------------
INTERNAL COORDINATES (A.U.)
---------------------------
 O      0   0   0     0.000000000000     0.00000000     0.00000000
 O      1   0   0     2.804372803563     0.00000000     0.00000000
 H      1   2   0     2.459195375583   105.80053087     0.00000000
 H      2   1   3     2.459196137420   105.79907245    89.99999986



           ************************************************************
           *        Program running with 6 parallel MPI-processes     *
           *              working on a common directory               *
           ************************************************************
------------------------------------------------------------------------------
                   ___                                                        
                  /   \      - P O W E R E D   B Y -                         
                 /     \                                                     
                 |  |  |   _    _      __       _____    __    __             
                 |  |  |  | |  | |    /  \     |  _  \  |  |  /  |          
                  \  \/   | |  | |   /    \    | | | |  |  | /  /          
                 / \  \   | |__| |  /  /\  \   | |_| |  |  |/  /          
                |  |  |   |  __  | /  /__\  \  |    /   |      \           
                |  |  |   | |  | | |   __   |  |    \   |  |\   \          
                \     /   | |  | | |  |  |  |  | |\  \  |  | \   \       
                 \___/    |_|  |_| |__|  |__|  |_| \__\ |__|  \__/        
                                                                              
                      - O R C A' S   B I G   F R I E N D -                    
                                      &                                       
                       - I N T E G R A L  F E E D E R -                       
                                                                              
 v1 FN, 2020, v2 2021, v3 2022-2024                                           
------------------------------------------------------------------------------


----------------------
SHARK INTEGRAL PACKAGE
----------------------

Number of atoms                             ...      4
Number of basis functions                   ...     38
Number of shells                            ...     18
Maximum angular momentum                    ...      2
Integral batch strategy                     ... SHARK/LIBINT Hybrid
RI-J (if used) integral strategy            ... SPLIT-RIJ (Revised 2003 algorithm where possible)
Printlevel                                  ...      1
Contraction scheme used                     ... SEGMENTED contraction
Prescreening option                         ... SCHWARTZ
   Thresh                                   ... 2.500e-11
   Tcut                                     ... 2.500e-12
   Tpresel                                  ... 2.500e-12 
Coulomb Range Separation                    ... NOT USED
Exchange Range Separation                   ... NOT USED
Multipole approximations                    ... NOT USED
Finite Nucleus Model                        ... NOT USED
CABS basis                                  ... NOT available
Auxiliary Coulomb fitting basis             ... AVAILABLE
   # of basis functions in Aux-J            ...    120
   # of shells in Aux-J                     ...     40
   Maximum angular momentum in Aux-J        ...      4
Auxiliary J/K fitting basis                 ... NOT available
Auxiliary Correlation fitting basis         ... NOT available
Auxiliary 'external' fitting basis          ... NOT available

Checking pre-screening integrals            ... done (  0.0 sec) Dimension = 18
   => SHARK Basis and OBASIS are compatible. Storing Pre-screening
Shell pair information
Shell pair cut-off parameter TPreSel        ...   2.5e-12
Total number of shell pairs                 ...       171
Shell pairs after pre-screening             ...       171
Total number of primitive shell pairs       ...       868
Primitive shell pairs kept                  ...       745
          la=0 lb=0:     55 shell pairs
          la=1 lb=0:     60 shell pairs
          la=1 lb=1:     21 shell pairs
          la=2 lb=0:     20 shell pairs
          la=2 lb=1:     12 shell pairs
          la=2 lb=2:      3 shell pairs

Checking whether 4 symmetric matrices of dimension 38 fit in memory
:Max Core in MB      =   4096.00
 MB in use           =      3.42
 MB left             =   4092.58
 MB needed           =      0.02
 Data fit in memory  = YES
Calculating RI/J V-Matrix + Cholesky decomp.... done (  0.0 sec)
Calculating Nuclear repulsion               ... done (  0.0 sec) ENN=     33.321988194253 Eh

Diagonalization of the overlap matrix:
Smallest eigenvalue                        ... 2.640e-02
Time for diagonalization                   ...    0.000 sec
Threshold for overlap eigenvalues          ... 1.000e-07
Number of eigenvalues below threshold      ... 0
Time for construction of square roots      ...    0.000 sec
Total time needed                          ...    0.001 sec

-------------------
DFT GRID GENERATION
-------------------

General Integration Accuracy     IntAcc      ... 4.388
Radial Grid Type                 RadialGrid  ... OptM3 with GC (2021)
Angular Grid (max. ang.)         AngularGrid ... 4 (Lebedev-302)
Angular grid pruning method      GridPruning ... 4 (adaptive)
Weight generation scheme         WeightScheme... mBecke (2022)
Basis function cutoff            BFCut       ... 1.0000e-11
Integration weight cutoff        WCut        ... 1.0000e-14
Partially contracted basis set               ... off
Rotationally invariant grid construction     ... off
Angular grids for H and He will be reduced by one unit

Total number of grid points                  ...    18892
Total number of batches                      ...      298
Average number of points per batch           ...       63
Average number of grid points per atom       ...     4723

--------------------
COSX GRID GENERATION
--------------------

GRIDX 1
-------
General Integration Accuracy     IntAcc      ... 3.816
Radial Grid Type                 RadialGrid  ... OptM3 with GC (2021)
Angular Grid (max. ang.)         AngularGrid ... 1 (Lebedev-50)
Angular grid pruning method      GridPruning ... 4 (adaptive)
Weight generation scheme         WeightScheme... mBecke (2022)
Basis function cutoff            BFCut       ... 1.0000e-11
Integration weight cutoff        WCut        ... 1.0000e-14
Partially contracted basis set               ... on
Rotationally invariant grid construction     ... off
Angular grids for H and He will be reduced by one unit

Total number of grid points                  ...     2429
Total number of batches                      ...       20
Average number of points per batch           ...      121
Average number of grid points per atom       ...      607
UseSFitting                                  ... on

GRIDX 2
-------
General Integration Accuracy     IntAcc      ... 4.020
Radial Grid Type                 RadialGrid  ... OptM3 with GC (2021)
Angular Grid (max. ang.)         AngularGrid ... 2 (Lebedev-110)
Angular grid pruning method      GridPruning ... 4 (adaptive)
Weight generation scheme         WeightScheme... mBecke (2022)
Basis function cutoff            BFCut       ... 1.0000e-11
Integration weight cutoff        WCut        ... 1.0000e-14
Partially contracted basis set               ... on
Rotationally invariant grid construction     ... off
Angular grids for H and He will be reduced by one unit

Total number of grid points                  ...     5390
Total number of batches                      ...       44
Average number of points per batch           ...      122
Average number of grid points per atom       ...     1348
UseSFitting                                  ... on

GRIDX 3
-------
General Integration Accuracy     IntAcc      ... 4.338
Radial Grid Type                 RadialGrid  ... OptM3 with GC (2021)
Angular Grid (max. ang.)         AngularGrid ... 3 (Lebedev-194)
Angular grid pruning method      GridPruning ... 4 (adaptive)
Weight generation scheme         WeightScheme... mBecke (2022)
Basis function cutoff            BFCut       ... 1.0000e-11
Integration weight cutoff        WCut        ... 1.0000e-14
Partially contracted basis set               ... on
Rotationally invariant grid construction     ... off
Angular grids for H and He will be reduced by one unit

Total number of grid points                  ...    11969
Total number of batches                      ...       94
Average number of points per batch           ...      127
Average number of grid points per atom       ...     2992
UseSFitting                                  ... on
Grids setup in   0.1 sec
Initializing property integral containers    ... done (  0.0 sec)

SHARK setup successfully completed in   0.2 seconds

Maximum memory used throughout the entire STARTUP-calculation: 9.7 MB


           ************************************************************
           *        Program running with 6 parallel MPI-processes     *
           *              working on a common directory               *
           ************************************************************
Occupation numbers will be reassigned to an Aufbau configuration
             **** ENERGY FILE WAS UPDATED (h2o2-scan.en.tmp) ****
Finished Guess after   0.3 sec
Maximum memory used throughout the entire GUESS-calculation: 5.6 MB


           ************************************************************
           *        Program running with 6 parallel MPI-processes     *
           *              working on a common directory               *
           ************************************************************
----------------------------------------D-I-I-S--------------------------------------------
Iteration    Energy (Eh)           Delta-E    RMSDP     MaxDP     DIISErr   Damp  Time(sec)
-------------------------------------------------------------------------------------------
               ***  Starting incremental Fock matrix formation  ***
    1    -151.3711174795171814     0.00e+00  1.98e-03  7.04e-03  2.23e-02  0.700   0.1
    2    -151.3720094218687109    -8.92e-04  1.87e-03  6.94e-03  1.63e-02  0.700   0.1
                               ***Turning on AO-DIIS***
    3    -151.3726432719802801    -6.34e-04  1.44e-03  4.27e-03  1.22e-02  0.700   0.0
    4    -151.3730846291374235    -4.41e-04  3.65e-03  1.11e-02  8.54e-03  0.000   0.0
                              *** Initializing SOSCF ***
---------------------------------------S-O-S-C-F--------------------------------------
Iteration    Energy (Eh)           Delta-E    RMSDP     MaxDP     MaxGrad    Time(sec)
--------------------------------------------------------------------------------------
    5    -151.3741965582509010    -1.11e-03  4.88e-04  1.69e-03  1.83e-03     0.0
               *** Restarting incremental Fock matrix formation ***
    6    -151.3742057693741287    -9.21e-06  3.36e-04  9.41e-04  3.07e-04     0.1
    7    -151.3742072228452287    -1.45e-06  2.82e-04  7.88e-04  3.36e-04     0.1
    8    -151.3742081664911154    -9.44e-07  1.39e-04  4.04e-04  1.51e-04     0.1
    9    -151.3742084363707932    -2.70e-07  1.00e-05  2.27e-05  1.40e-05     0.1
   10    -151.3742084388254625    -2.45e-09  1.26e-06  3.46e-06  4.86e-06     0.1
                 **** Energy Check signals convergence ****

               *****************************************************
               *                     SUCCESS                       *
               *           SCF CONVERGED AFTER  10 CYCLES          *
               *****************************************************

Recomputing exchange energy using gridx3       ... done (    0.056 sec)
Old exchange energy                            :     -3.355773425 Eh
New exchange energy                            :     -3.355776280 Eh
Exchange energy change after final integration :     -0.000002855 Eh
Total energy after final integration           :   -151.374211294 Eh
             **** ENERGY FILE WAS UPDATED (h2o2-scan.en.tmp) ****

----------------
TOTAL SCF ENERGY
----------------

Total Energy       :       -151.37421129389415 Eh           -4119.10170 eV

Components:
Nuclear Repulsion  :         33.32198819425297 Eh             906.73740 eV
Electronic Energy  :       -184.69619663338855 Eh           -5025.83902 eV
One Electron Energy:       -274.83625469210932 Eh           -7478.67470 eV
Two Electron Energy:         90.14005805872077 Eh            2452.83568 eV

Virial components:
Potential Energy   :       -301.30532473882039 Eh           -8198.93471 eV
Kinetic Energy     :        149.93111344492624 Eh            4079.83301 eV
Virial Ratio       :          2.00962507258040

DFT components:
N(Alpha)           :        9.000001574902 electrons
N(Beta)            :        9.000001574902 electrons
N(Total)           :       18.000003149803 electrons
E(X)               :      -13.445453921464 Eh       
E(C)               :       -0.736468269907 Eh       
E(XC)              :      -14.181922191372 Eh       

---------------
SCF CONVERGENCE
---------------

  Last Energy change         ...    2.4547e-09  Tolerance :   1.0000e-08
  Last MAX-Density change    ...    3.4563e-06  Tolerance :   1.0000e-07
  Last RMS-Density change    ...    1.2629e-06  Tolerance :   5.0000e-09
  Last DIIS Error            ...    1.8324e-03  Tolerance :   5.0000e-07
  Last Orbital Gradient      ...    4.8580e-06  Tolerance :   1.0000e-05
  Last Orbital Rotation      ...    4.2238e-06  Tolerance :   1.0000e-05


Total SCF time: 0 days 0 hours 0 min 0 sec 
Finished LeanSCF after   0.9 sec

Maximum memory used throughout the entire LEANSCF-calculation: 5.2 MB

-------------------------   --------------------
FINAL SINGLE POINT ENERGY      -151.374211293894
-------------------------   --------------------



           ************************************************************
           *        Program running with 6 parallel MPI-processes     *
           *              working on a common directory               *
           ************************************************************
------------------------------------------------------------------------------
                         ORCA SCF GRADIENT CALCULATION
------------------------------------------------------------------------------

Nuc. rep. gradient        (SHARK) ... done (  0.0 sec)
HCore & Overlap gradient  (SHARK) ... done (  0.0 sec)
Split-RIJ-J gradient      (SHARK) ... done (  0.1 sec)
done (  0.2 sec)
XC gradient                       ... done (  0.0 sec)

------------------
CARTESIAN GRADIENT
------------------

   1   O   :    0.008725773   -0.006355281    0.095067571
   2   O   :   -0.066007895    0.066363452    0.019836351
   3   H   :    0.016687517    0.035532419   -0.097640244
   4   H   :    0.040594605   -0.095540590   -0.017263678

Difference to translation invariance:
           :   -0.0000000000    0.0000000000    0.0000000000

Difference to rotation invariance:
           :   -0.0000295501    0.0000168193    0.0000294775

Norm of the Cartesian gradient     ...    0.2011407635
RMS gradient                       ...    0.0580643370
MAX gradient                       ...    0.0976402442

-------
TIMINGS
-------

Total SCF gradient time     ....        0.316 sec

Densities                   ....       0.000 sec  (  0.0%)
One electron gradient       ....       0.005 sec  (  1.4%)
RI-J Coulomb gradient       ....       0.067 sec  ( 21.2%)
COSX gradient               ....       0.199 sec  ( 62.9%)
XC gradient                 ....       0.046 sec  ( 14.4%)

Maximum memory used throughout the entire SCFGRAD-calculation: 6.6 MB
------------------------------------------------------------------------------
                         ORCA GEOMETRY RELAXATION STEP
------------------------------------------------------------------------------

Reading the OPT-File                    .... done
Getting information on internals        .... done
Copying old internal coords+grads       .... done
Making the new internal coordinates     .... (2022 redundants) done
Validating the new internal coordinates .... (2022 redundants) done
Calculating the B-matrix                .... done
Calculating the G,G- and P matrices     .... done
Transforming gradient to internals      .... done
Projecting the internal gradient        .... done
Number of atoms                         ....   4
Number of internal coordinates          ....   6
Current Energy                          ....  -151.374211294 Eh
Current gradient norm                   ....     0.201140763 Eh/bohr
Maximum allowed component of the step   ....  0.300
Current trust radius                    ....  0.300
Updating the Hessian (BFGS)             .... done
Forming the augmented Hessian           .... done
Diagonalizing the augmented Hessian     .... done
Last element of RFO vector              ....  0.714989398
Lowest eigenvalues of augmented Hessian:
 -0.150675548  0.100278511  0.157078004  0.251904690  0.253704799
Length of the computed step             ....  0.977826100
Warning: the length of the step is outside the trust region - taking restricted step instead
The input lambda is                     ....     0.005723
   iter:   5  x=   -0.000871  g=365048.897527 f(x)=   923.916463
   iter:  10  x=   -0.050750  g=  837.316357 f(x)=    15.981096
   iter:  15  x=   -0.359494  g=    2.442788 f(x)=     0.238301
   iter:  20  x=   -0.506619  g=    0.350354 f(x)=     0.000000
The output lambda is                    ....    -0.506619 (22 iterations)
The final length of the internal step   ....  0.300000000
Converting the step to Cartesian space:
 Initial RMS(Int)=    0.1224744871
Transforming coordinates:
 Iter   0:  RMS(Cart)=    0.0863755773 RMS(Int)=    0.1221621492
 Iter   5:  RMS(Cart)=    0.0000000393 RMS(Int)=    0.0000000387
Imposing constraints:
 Iter   0:  RMS(Cart)=    0.0000000258 RMS(Int)=    0.0000000032
CONVERGED
done
Storing new coordinates                 .... done
The predicted energy change is          ....    -0.045940046
Previously predicted energy change      ....    -0.042468905
Actually observed energy change         ....    -0.047322821
Ratio of predicted to observed change   ....     1.114293415
New trust radius                        ....     0.450000000

                                .--------------------.
          ----------------------|Geometry convergence|-------------------------
          Item                value                   Tolerance       Converged
          ---------------------------------------------------------------------
          Energy change      -0.0473228207            0.0000050000      NO
          RMS gradient        0.0630532842            0.0001000000      NO
          MAX gradient        0.1051190009            0.0003000000      NO
          RMS step            0.1224744871            0.0020000000      NO
          MAX step            0.2066222310            0.0040000000      NO
          -------------------------------------------------------------------------
          ........................................................
          Max(Bonds)      0.1093      Max(Angles)    1.17
          Max(Dihed)        0.00      Max(Improp)    0.00
          ---------------------------------------------------------------------

The optimization has not yet converged - more geometry cycles are needed


    ---------------------------------------------------------------------------
                         Redundant Internal Coordinates
                            (Angstroem and degrees)

        Definition                    Value    dE/dq     Step     New-Value
    ----------------------------------------------------------------------------
     1. B(O   1,O   0)                1.4840  0.038283 -0.0325    1.4515   
     2. B(H   2,O   0)                1.3014  0.105119 -0.1093    1.1920   
     3. B(H   3,O   1)                1.3014  0.105117 -0.1093    1.1920   
     4. A(O   1,O   0,H   2)          105.80  0.012024   -1.17    104.63   
     5. A(O   0,O   1,H   3)          105.80  0.012023   -1.17    104.63   
     6. D(H   3,O   1,O   0,H   2)     90.00 -0.000940   -0.00     90.00 C 
    ----------------------------------------------------------------------------

Geometry step timings:
Preparation and reading OPT file:      0.000 s ( 0.232 %)
Internal coordinates            :      0.000 s ( 0.220 %)
B/P matrices and projection     :      0.000 s ( 1.169 %)
Hessian update/contruction      :      0.000 s ( 1.308 %)
Making the step                 :      0.000 s ( 0.695 %)
Converting the step to Cartesian:      0.000 s ( 0.359 %)
Storing new data                :      0.000 s ( 0.208 %)
Checking convergence            :      0.000 s ( 0.463 %)
Final printing                  :      0.008 s (95.346 %)
Total time                      :      0.009 s

Time for energy+gradient        :      5.975 s
Time for complete geometry iter :      7.151 s

         *************************************************************
         *                GEOMETRY OPTIMIZATION CYCLE   3            *
         *************************************************************
---------------------------------
CARTESIAN COORDINATES (ANGSTROEM)
---------------------------------
  O      1.702413    1.592197    0.348000
  O      0.620071    0.625694    0.313223
  H      1.824475    1.948275   -0.783016
  H      1.157269   -0.421044    0.121768

----------------------------
CARTESIAN COORDINATES (A.U.)
----------------------------
  NO LB      ZA    FRAG     MASS         X           Y           Z
   0 O     8.0000    0    15.999    3.217094    3.008816    0.657625
   1 O     8.0000    0    15.999    1.171765    1.182390    0.591906
   2 H     1.0000    0     1.008    3.447758    3.681706   -1.479687
   3 H     1.0000    0     1.008    2.186921   -0.795657    0.230108

--------------------------------
INTERNAL COORDINATES (ANGSTROEM)
--------------------------------
 O      0   0   0     0.000000000000     0.00000000     0.00000000
 O      1   0   0     1.451482455010     0.00000000     0.00000000
 H      1   2   0     1.192010367041   104.62754266     0.00000000
 H      2   1   3     1.192013074995   104.62652311    90.00000038

---------------------------
INTERNAL COORDINATES (A.U.)
---------------------------
 O      0   0   0     0.000000000000     0.00000000     0.00000000
 O      1   0   0     2.742904328161     0.00000000     0.00000000
 H      1   2   0     2.252573142503   104.62754266     0.00000000
 H      2   1   3     2.252578259794   104.62652311    90.00000038



           ************************************************************
           *        Program running with 6 parallel MPI-processes     *
           *              working on a common directory               *
           ************************************************************
------------------------------------------------------------------------------
                   ___                                                        
                  /   \      - P O W E R E D   B Y -                         
                 /     \                                                     
                 |  |  |   _    _      __       _____    __    __             
                 |  |  |  | |  | |    /  \     |  _  \  |  |  /  |          
                  \  \/   | |  | |   /    \    | | | |  |  | /  /          
                 / \  \   | |__| |  /  /\  \   | |_| |  |  |/  /          
                |  |  |   |  __  | /  /__\  \  |    /   |      \           
                |  |  |   | |  | | |   __   |  |    \   |  |\   \          
                \     /   | |  | | |  |  |  |  | |\  \  |  | \   \       
                 \___/    |_|  |_| |__|  |__|  |_| \__\ |__|  \__/        
                                                                              
                      - O R C A' S   B I G   F R I E N D -                    
                                      &                                       
                       - I N T E G R A L  F E E D E R -                       
                                                                              
 v1 FN, 2020, v2 2021, v3 2022-2024                                           
------------------------------------------------------------------------------


----------------------
SHARK INTEGRAL PACKAGE
----------------------

Number of atoms                             ...      4
Number of basis functions                   ...     38
Number of shells                            ...     18
Maximum angular momentum                    ...      2
Integral batch strategy                     ... SHARK/LIBINT Hybrid
RI-J (if used) integral strategy            ... SPLIT-RIJ (Revised 2003 algorithm where possible)
Printlevel                                  ...      1
Contraction scheme used                     ... SEGMENTED contraction
Prescreening option                         ... SCHWARTZ
   Thresh                                   ... 2.500e-11
   Tcut                                     ... 2.500e-12
   Tpresel                                  ... 2.500e-12 
Coulomb Range Separation                    ... NOT USED
Exchange Range Separation                   ... NOT USED
Multipole approximations                    ... NOT USED
Finite Nucleus Model                        ... NOT USED
[...]


           ************************************************************
           *        Program running with 6 parallel MPI-processes     *
           *              working on a common directory               *
           ************************************************************

-------------------------------------------------------------------------------------------
                                      ORCA LEAN-SCF
                              memory conserving SCF solver
-------------------------------------------------------------------------------------------

----------------------------------------D-I-I-S--------------------------------------------
Iteration    Energy (Eh)           Delta-E    RMSDP     MaxDP     DIISErr   Damp  Time(sec)
-------------------------------------------------------------------------------------------
               ***  Starting incremental Fock matrix formation  ***
                              *** Initializing SOSCF ***
---------------------------------------S-O-S-C-F--------------------------------------
Iteration    Energy (Eh)           Delta-E    RMSDP     MaxDP     MaxGrad    Time(sec)
--------------------------------------------------------------------------------------
    1    -151.4718213353210672     0.00e+00  1.21e-05  3.66e-05  8.81e-06     0.1
               *** Restarting incremental Fock matrix formation ***
    2    -151.4718213423955433    -7.07e-09  5.05e-06  1.36e-05  9.79e-06     0.1
    3    -151.4718213437521399    -1.36e-09  2.50e-06  8.88e-06  5.26e-06     0.1
                 **** Energy Check signals convergence ****

               *****************************************************
               *                     SUCCESS                       *
               *           SCF CONVERGED AFTER   3 CYCLES          *
               *****************************************************

Recomputing exchange energy using gridx3       ... done (    0.108 sec)
Old exchange energy                            :     -3.417968496 Eh
New exchange energy                            :     -3.417985404 Eh
Exchange energy change after final integration :     -0.000016908 Eh
Total energy after final integration           :   -151.471838251 Eh
             **** ENERGY FILE WAS UPDATED (h2o2-scan.en.tmp) ****

----------------
TOTAL SCF ENERGY
----------------

Total Energy       :       -151.47183825118171 Eh           -4121.75826 eV

Components:
Nuclear Repulsion  :         36.54286904825264 Eh             994.38202 eV
Electronic Energy  :       -188.01469039124800 Eh           -5116.13983 eV
One Electron Energy:       -281.01889104688058 Eh           -7646.91279 eV
Two Electron Energy:         93.00420065563260 Eh            2530.77296 eV

Virial components:
Potential Energy   :       -302.09221333718074 Eh           -8220.34704 eV
Kinetic Energy     :        150.62037508599903 Eh            4098.58877 eV
Virial Ratio       :          2.00565304106232

DFT components:
N(Alpha)           :        8.999998795366 electrons
N(Beta)            :        8.999998795366 electrons
N(Total)           :       17.999997590733 electrons
E(X)               :      -13.635022849362 Eh       
E(C)               :       -0.748486945570 Eh       
E(XC)              :      -14.383509794932 Eh       

---------------
SCF CONVERGENCE
---------------

  Last Energy change         ...    1.3566e-09  Tolerance :   1.0000e-08
  Last MAX-Density change    ...    8.8834e-06  Tolerance :   1.0000e-07
  Last RMS-Density change    ...    2.5029e-06  Tolerance :   5.0000e-09
  Last DIIS Error            ...    4.0967e-05  Tolerance :   5.0000e-07
  Last Orbital Gradient      ...    5.2593e-06  Tolerance :   1.0000e-05
  Last Orbital Rotation      ...    6.0618e-06  Tolerance :   1.0000e-05


----------------
ORBITAL ENERGIES
----------------

  NO   OCC          E(Eh)            E(eV) 
   0   2.0000     -19.191222      -522.2197 
   1   2.0000     -19.191200      -522.2191 
   2   2.0000      -1.100190       -29.9377 
   3   2.0000      -0.890311       -24.2266 
   4   2.0000      -0.497889       -13.5482 
   5   2.0000      -0.496499       -13.5104 
   6   2.0000      -0.384761       -10.4699 
   7   2.0000      -0.355259        -9.6671 
   8   2.0000      -0.242342        -6.5945 
   9   0.0000       0.025175         0.6850 
  10   0.0000       0.075791         2.0624 
  11   0.0000       0.125562         3.4167 
  12   0.0000       0.757004        20.5991 
  13   0.0000       0.763822        20.7846 
  14   0.0000       0.844767        22.9873 
  15   0.0000       0.851354        23.1665 
  16   0.0000       0.913879        24.8679 
  17   0.0000       0.964625        26.2488 
  18   0.0000       1.025585        27.9076 
  19   0.0000       1.036863        28.2145 
*Only the first 10 virtual orbitals were printed.

                    ********************************
                    * MULLIKEN POPULATION ANALYSIS *
                    ********************************

-----------------------
MULLIKEN ATOMIC CHARGES
-----------------------
   0 O :   -0.345862
   1 O :   -0.345857
   2 H :    0.345860
   3 H :    0.345859
Sum of atomic charges:   -0.0000000

--------------------------------
MULLIKEN REDUCED ORBITAL CHARGES
--------------------------------
  0 O s       :     3.861608  s :     3.861608
      pz      :     1.808327  p :     4.452527
      px      :     1.342256
      py      :     1.301944
      dz2     :     0.003608  d :     0.031728
      dxz     :     0.005002
      dyz     :     0.006169
      dx2y2   :     0.007034
      dxy     :     0.009914

  1 O s       :     3.861608  s :     3.861608
      pz      :     1.808326  p :     4.452521
      px      :     1.342254
      py      :     1.301941
      dz2     :     0.003608  d :     0.031728
      dxz     :     0.005002
      dyz     :     0.006169
      dx2y2   :     0.007034
      dxy     :     0.009914

  2 H s       :     0.617440  s :     0.617440
      pz      :     0.014173  p :     0.036700
      px      :     0.007580
      py      :     0.014947

  3 H s       :     0.617441  s :     0.617441
      pz      :     0.014173  p :     0.036700
      px      :     0.007580
      py      :     0.014947



                     *******************************
                     * LOEWDIN POPULATION ANALYSIS *
                     *******************************

----------------------
LOEWDIN ATOMIC CHARGES
----------------------
   0 O :   -0.174749
   1 O :   -0.174745
   2 H :    0.174747
   3 H :    0.174747

-------------------------------
LOEWDIN REDUCED ORBITAL CHARGES
-------------------------------
  0 O s       :     3.599105  s :     3.599105
      pz      :     1.797052  p :     4.512549
      px      :     1.398297
      py      :     1.317200
      dz2     :     0.006501  d :     0.063094
      dxz     :     0.008799
      dyz     :     0.012216
      dx2y2   :     0.015136
      dxy     :     0.020443

  1 O s       :     3.599106  s :     3.599106
      pz      :     1.797051  p :     4.512545
      px      :     1.398295
      py      :     1.317198
      dz2     :     0.006501  d :     0.063094
      dxz     :     0.008799
      dyz     :     0.012216
      dx2y2   :     0.015136
      dxy     :     0.020443

  2 H s       :     0.710615  s :     0.710615
      pz      :     0.043496  p :     0.114638
      px      :     0.024057
      py      :     0.047085

  3 H s       :     0.710615  s :     0.710615
      pz      :     0.043496  p :     0.114638
      px      :     0.024058
      py      :     0.047084



                      *****************************
                      * MAYER POPULATION ANALYSIS *
                      *****************************

  NA   - Mulliken gross atomic population
  ZA   - Total nuclear charge
  QA   - Mulliken gross atomic charge
  VA   - Mayer's total valence
  BVA  - Mayer's bonded valence
  FA   - Mayer's free valence

  ATOM       NA         ZA         QA         VA         BVA        FA
  0 O      8.3459     8.0000    -0.3459     1.8404     1.8404    -0.0000
  1 O      8.3459     8.0000    -0.3459     1.8404     1.8404    -0.0000
  2 H      0.6541     1.0000     0.3459     0.8715     0.8715    -0.0000
  3 H      0.6541     1.0000     0.3459     0.8715     0.8715    -0.0000

  Mayer bond orders larger than 0.100000
B(  0-O ,  1-O ) :   0.9714 B(  0-O ,  2-H ) :   0.8647 B(  1-O ,  3-H ) :   0.8647 


-------
TIMINGS
-------

Total SCF time: 0 days 0 hours 0 min 1 sec 

Total time                  ....       1.175 sec
Sum of individual times     ....       1.028 sec  ( 87.5%)

SCF preparation             ....       0.347 sec  ( 29.6%)
Fock matrix formation       ....       0.396 sec  ( 33.7%)
  Startup                   ....       0.005 sec  (  1.2% of F)
  Split-RI-J                ....       0.019 sec  (  4.8% of F)
  Chain of spheres X        ....       0.334 sec  ( 84.2% of F)
  XC integration            ....       0.125 sec  ( 31.6% of F)
    XC Preparation          ....       0.000 sec  (  0.0% of XC)
    Basis function eval.    ....       0.037 sec  ( 29.9% of XC)
    Density eval.           ....       0.016 sec  ( 12.6% of XC)
    XC-Functional eval.     ....       0.014 sec  ( 11.4% of XC)
    XC-Potential eval.      ....       0.010 sec  (  7.9% of XC)
Diagonalization             ....       0.000 sec  (  0.0%)
Density matrix formation    ....       0.002 sec  (  0.2%)
Total Energy calculation    ....       0.001 sec  (  0.1%)
Population analysis         ....       0.259 sec  ( 22.0%)
Orbital Transformation      ....       0.014 sec  (  1.2%)
Orbital Orthonormalization  ....       0.000 sec  (  0.0%)
DIIS solution               ....       0.003 sec  (  0.2%)
SOSCF solution              ....       0.006 sec  (  0.5%)
Finished LeanSCF after   1.3 sec

Maximum memory used throughout the entire LEANSCF-calculation: 8.3 MB

-------------------------   --------------------
FINAL SINGLE POINT ENERGY      -151.471838251182
-------------------------   --------------------

                                *** OPTIMIZATION RUN DONE ***


Storing optimized geometry in h2o2-scan.010.xyz ... done
Storing optimized geometry and energy in h2o2-scan.xyzall ... done
Storing actual gbw-file in h2o2-scan.010.gbw ... done


           ************************************************************
           *        Program running with 6 parallel MPI-processes     *
           *              working on a common directory               *
           ************************************************************

------------------------------------------------------------------------------
                              ORCA PROPERTY CALCULATIONS
------------------------------------------------------------------------------

GBWName                                 ... h2o2-scan.gbw
Number of atoms                         ...      4
Number of basis functions               ...     38
Max core memory                         ...   4096 MB

Electric properties:
Dipole moment                           ... YES
Quadrupole moment                       ...  NO
Static polarizability (Dipole/Dipole)   ...  NO
Static polarizability (Dipole/Quad.)    ...  NO
Static polarizability (Quad./Quad.)     ...  NO
Static polarizability (Velocity)        ...  NO
Static hyperpolarizability              ...  NO

Atomic electric properties:
Dipole moment                           ...  NO
Quadrupole moment                       ...  NO
Static polarizability                   ...  NO

Choice of electric origin               ... Center of mass
Position of electric origin             ...     2.505881     1.769312    -0.000013

General magnetic properties:
Magnetizability                         ...  NO

EPR properties:
g-Tensor (aka g-matrix)                 ...  NO
Zero-Field splitting spin-orbit         ...  NO
Zero-field splitting spin-spin          ...  NO
Hyperfine couplings                     ...  NO (   0 nuclei)
Quadrupole couplings                    ...  NO (   0 nuclei)
Contact density                         ...  NO (   0 nuclei)

NMR properties:
Chemical shifts                         ...  NO (   0 nuclei)
Spin-rotation constants                 ...  NO (   0 nuclei)
Spin-spin couplings                     ...  NO (   0 nuclei,    0 pairs)

Choice of magnetic origin               ... GIAO
Position of magnetic origin             ...     0.000000     0.000000     0.000000

Properties with geometric perturbations:
SCF Hessian                             ...  NO
IR spectrum                             ...  NO
VCD spectrum                            ...  NO
X-ray spectroscopy properties:
SCF XES/XAS/RIXS spectra                ...  NO

SCF SOC stabilization energy            ...  NO
Diagonal Born-Oppenheimer correction    ...  NO

-------------
DIPOLE MOMENT
-------------

Method             : SCF
Type of density    : Electron Density
Multiplicity       :   1
Irrep              :   0
Energy             :  -151.4718382511817083 Eh
Basis              : AO
                                X                 Y                 Z
Electronic contribution:     -0.000007527      -0.000002924      -0.000002234
Nuclear contribution   :      0.000007646       0.000004373       0.000001524
                        -----------------------------------------
Total Dipole Moment    :      0.000000118       0.000001449      -0.000000710
                        -----------------------------------------
Magnitude (a.u.)       :      0.000001618
Magnitude (Debye)      :      0.000004112



--------------------
Rotational spectrum 
--------------------
 
Rotational constants in cm-1:             9.984582             0.890550             0.817624 
Rotational constants in MHz :        299330.226052         26698.012308         24511.748122 

Dipole components along the rotational axes: 
x,y,z [a.u.] :     0.000001     0.000001    -0.000000 
x,y,z [Debye]:     0.000003     0.000003    -0.000000 

 

Dipole moment calculation done in   0.0 sec 

Maximum memory used throughout the entire PROP-calculation: 5.6 MB
                   **** RELAXED SURFACE SCAN DONE ***

                    SUMMARY OF THE CALCULATED SURFACE

----------------------------
RELAXED SURFACE SCAN RESULTS
----------------------------

Column   1: NONAME

The Calculated Surface using the 'Actual Energy'
  90.00000000 -151.47198776
 100.00000000 -151.47266530
 110.00000000 -151.47300856
 120.00000000 -151.47306684
 130.00000000 -151.47292144
 140.00000000 -151.47266022
 150.00000000 -151.47236210
 160.00000000 -151.47209970
 170.00000000 -151.47190851
 180.00000000 -151.47183825

The Calculated Surface using the SCF energy
  90.00000000 -151.47198776
 100.00000000 -151.47266530
 110.00000000 -151.47300856
 120.00000000 -151.47306684
 130.00000000 -151.47292144
 140.00000000 -151.47266022
 150.00000000 -151.47236210
 160.00000000 -151.47209970
 170.00000000 -151.47190851
 180.00000000 -151.47183825


--------------------------------
SUGGESTED CITATIONS FOR THIS RUN
--------------------------------

Below you find a list of papers that are relevant to this ORCA run
We neither can nor want to force you to cite these papers, but we appreciate if you do
You receive ORCA, which is the product of decades of hard work by many enthusiastic individuals, for free
The only thing we kindly ask in return is that you cite our papers,
We deeply appreciate it, if you show your appreciation for ORCA by not just citing the generic ORCA reference.

Please note that relegating all ORCA citations to the supporting information does *not* help us.
SI sections are not indexed - citations you put there will not count into any citation statistics
But we need these citations in order to attract the funding resources that allow us to do what we are doing

Therefore, if you are a happy ORCA user, please consider citing a few of the papers listed below in the main body of your paper

In addition to the list printed below, the program has created the file h2o2-scan.bibtex that contains the list in bibtex format
You can import this file easily into all common literature databanks and citation aid programs


List of essential papers. We consider these as the minimum necessary citations

  1. Neese, F.
     Software update: the ORCA program system, version 6.0
     WIRES Comput. Molec. Sci. 2025 15(1), e70019
     doi.org/10.1002/wcms.7019

List of papers to cite with high priority. The work reported in these papers was absolutely
necessary for this run to complete.
Our perspective: the developers of density functionals and basis sets usually get cited in chemistry papers
Good! But without the algorithms to do something with them, the functionals or basis sets would not do anything.
Hence, in our opinion, the algorithm design and method developments papers are equally worthy of getting cited

  1. Neese, F.
     An improvement of the resolution of the identity approximation for the formation of the Coulomb matrix
     J. Comp. Chem. 2003 24(14), 1740-1747
     doi.org/10.1002/jcc.10318
  2. Neese, F.; Wennmohs, F.; Hansen, A.; Becker, U.
     Efficient, approximate and parallel Hartree-Fock and hybrid DFT calculations. A 'chain-of-spheres' algorithm for the Hartree-Fock exchange
     Chem. Phys. 2009 356(1-3), 98-109
     doi.org/10.1016/j.chemphys.2008.10.036
  3. Helmich-Paris, B.; de Souza, B.; Neese, F.; Izsák, R.
     An improved chain of spheres for exchange algorithm
     J. Chem. Phys. 2021 155(10), 104109
     doi.org/10.1063/5.0058766
  4. Neese, F.
     The SHARK Integral Generation and Digestion System
     J. Comp. Chem. 2022 44(3), 381
     doi.org/10.1002/jcc.26942

List of suggested additional citations. These are papers that are important in the 'surrounding' of 
of this run, or papers that preceded the highly important papers. If you like your results we are grateful for a citation.

  1. Izsak, R.; Neese, F.
     An overlap fitted chain of spheres exchange method
     J. Chem. Phys. 2011 135 , 144105
     doi.org/10.1063/1.3646921
  2. Izsak, R.; Hansen, A.; Neese, F.
     The resolution of identity and chain of spheres approximations for the LPNO-CCSD singles Fock term
     Molec. Phys. 2012 110 , 2413-2417
     doi.org/10.1080/00268976.2012.687466
  3. Neese, F.
     The ORCA program system
     WIRES Comput. Molec. Sci. 2012 2(1), 73-78
     doi.org/10.1002/wcms.81
  4. Izsak, R.; Neese, F.; Klopper, W.
     Robust fitting techniques in the chain of spheres approximation to the Fock exchange: The role of the complementary space
     J. Chem. Phys. 2013 139 , 
     doi.org/10.1063/1.4819264
  5. Neese, F.
     Software update: the ORCA program system, version 4.0
     WIRES Comput. Molec. Sci. 2018 8(1), 1-6
     doi.org/10.1002/wcms.1327
  6. Neese, F.; Wennmohs, F.; Becker, U.; Riplinger, C.
     The ORCA quantum chemistry program package
     J. Chem. Phys. 2020 152(22), 224108
     doi.org/10.1063/5.0004608
  7. Neese, F.
     Software update: The ORCA program system—Version 5.0
     WIRES Comput. Molec. Sci. 2022 12(1), e1606
     doi.org/10.1002/wcms.1606

List of optional additional citations

  1. Neese, F.
     Approximate second-order SCF convergence for spin unrestricted wavefunctions
     Chem. Phys. Lett. 2000 325(1-3), 93-98
     doi.org/10.1016/s0009-2614(00)00662-x

Timings for individual modules:

Sum of individual times          ...      299.134 sec (=   4.986 min)
Startup calculation              ...       67.456 sec (=   1.124 min)  22.6 %
SCF iterations                   ...      158.364 sec (=   2.639 min)  52.9 %
Property calculations            ...       11.692 sec (=   0.195 min)   3.9 %
SCF Gradient evaluation          ...       61.529 sec (=   1.025 min)  20.6 %
Geometry relaxation              ...        0.093 sec (=   0.002 min)   0.0 %
                             ****ORCA TERMINATED NORMALLY****
TOTAL RUN TIME: 0 days 0 hours 5 minutes 57 seconds 702 msec
