4
Coordinates from ORCA-job h2o2-scan Relaxed Surface Scan Step 1 E -151.471987757540
  O       1.720707      1.573663      0.279696
  O       0.658883      0.584436      0.266996
  H       1.759496      1.817597     -0.660044
  H       1.165143     -0.230574      0.113328
>
4
Coordinates from ORCA-job h2o2-scan Relaxed Surface Scan Step 2 E -151.472665303813
  O       1.745528      1.547652      0.268293
  O       0.658550      0.584783      0.229281
  H       1.742351      1.857726     -0.652188
  H       1.157799     -0.245039      0.154590
>
4
Coordinates from ORCA-job h2o2-scan Relaxed Surface Scan Step 3 E -151.473008562723
  O       1.769622      1.522143      0.253199
  O       0.660933      0.582526      0.191235
  H       1.725431      1.897591     -0.641024
  H       1.148242     -0.257138      0.196565
>
4
Coordinates from ORCA-job h2o2-scan Relaxed Surface Scan Step 4 E -151.473066839775
  O       1.793054      1.497291      0.234739
  O       0.665726      0.577758      0.153020
  H       1.708554      1.936292     -0.626542
  H       1.136893     -0.266218      0.238758
>
4
Coordinates from ORCA-job h2o2-scan Relaxed Surface Scan Step 5 E -151.472921442598
  O       1.815790      1.473236      0.213189
  O       0.672801      0.570624      0.114814
  H       1.691603      1.973099     -0.608761
  H       1.124034     -0.271837      0.280734
>
4
Coordinates from ORCA-job h2o2-scan Relaxed Surface Scan Step 6 E -151.472660216520
  O       1.837731      1.450067      0.188799
  O       0.682002      0.561257      0.076833
  H       1.674552      2.007418     -0.587740
  H       1.109943     -0.273620      0.322083
>
4
Coordinates from ORCA-job h2o2-scan Relaxed Surface Scan Step 7 E -151.472362104571
  O       1.858742      1.427848      0.161808
  O       0.693121      0.549765      0.039315
  H       1.657446      2.038732     -0.563556
  H       1.094919     -0.271223      0.362408
>
4
Coordinates from ORCA-job h2o2-scan Relaxed Surface Scan Step 8 E -151.472099695745
  O       1.878535      1.406713      0.132395
  O       0.706266      0.536328      0.002578
  H       1.640382      2.066684     -0.536348
  H       1.079045     -0.264603      0.401351
>
4
Coordinates from ORCA-job h2o2-scan Relaxed Surface Scan Step 9 E -151.471908514538
  O       1.897449      1.386868      0.101062
  O       0.720859      0.521075     -0.033305
  H       1.623220      2.090655     -0.506298
  H       1.062700     -0.253476      0.438516
>
4
Coordinates from ORCA-job h2o2-scan Relaxed Surface Scan Step 10 E -151.471838251182
  O       1.915161      1.368415      0.067976
  O       0.736948      0.504144     -0.067990
  H       1.606146      2.110466     -0.473606
  H       1.045973     -0.237902      0.473594
>
4
Coordinates from ORCA-job h2o2-scan Relaxed Surface Scan Step 11 E -151.471906272035
  O       1.931496      1.351498      0.033395
  O       0.754422      0.485673     -0.101187
  H       1.589299      2.125885     -0.438500
  H       1.029011     -0.217935      0.506266
>
4
Coordinates from ORCA-job h2o2-scan Relaxed Surface Scan Step 12 E -151.472092340718
  O       1.946279      1.336263     -0.002416
  O       0.773164      0.465809     -0.132606
  H       1.572863      2.136867     -0.401292
  H       1.011921     -0.193816      0.536288
>
4
Coordinates from ORCA-job h2o2-scan Relaxed Surface Scan Step 13 E -151.472363745598
  O       1.959000      1.322781     -0.039315
  O       0.793365      0.444728     -0.161834
  H       1.557226      2.143781     -0.362404
  H       0.994637     -0.166169      0.563527
>
4
Coordinates from ORCA-job h2o2-scan Relaxed Surface Scan Step 14 E -151.472660918436
  O       1.970128      1.311276     -0.076818
  O       0.814370      0.422522     -0.188837
  H       1.542236      2.146180     -0.322063
  H       0.977494     -0.134856      0.587693
>
4
Coordinates from ORCA-job h2o2-scan Relaxed Surface Scan Step 15 E -151.472920916527
  O       1.979347      1.301884     -0.114783
  O       0.836290      0.399379     -0.213243
  H       1.528199      2.144394     -0.280685
  H       0.960391     -0.100535      0.608687
>
4
Coordinates from ORCA-job h2o2-scan Relaxed Surface Scan Step 16 E -151.473067342879
  O       1.986446      1.294717     -0.152962
  O       0.858999      0.375357     -0.234822
  H       1.515418      2.138772     -0.238670
  H       0.943366     -0.063724      0.626429
>
4
Coordinates from ORCA-job h2o2-scan Relaxed Surface Scan Step 17 E -151.473007769220
  O       1.991278      1.289908     -0.191132
  O       0.882394      0.350544     -0.253325
  H       1.504160      2.129683     -0.196426
  H       0.926396     -0.025013      0.640858
>
4
Coordinates from ORCA-job h2o2-scan Relaxed Surface Scan Step 18 E -151.472664632696
  O       1.993709      1.287603     -0.229128
  O       0.906440      0.325084     -0.268468
  H       1.494716      2.117573     -0.154390
  H       0.909363      0.014862      0.651960
>
4
Coordinates from ORCA-job h2o2-scan Relaxed Surface Scan Step 19 E -151.471982476569
  O       1.993495      1.287911     -0.266792
  O       0.931163      0.299098     -0.279967
  H       1.487493      2.103129     -0.113050
  H       0.892077      0.054983      0.659784
>
4
Coordinates from ORCA-job h2o2-scan Relaxed Surface Scan Step 20 E -151.470931975690
  O       1.990340      1.290876     -0.303960
  O       0.956631      0.272760     -0.287556
  H       1.482958      2.087170     -0.072932
  H       0.874299      0.094317      0.664422
>
4
Coordinates from ORCA-job h2o2-scan Relaxed Surface Scan Step 21 E -151.469531958323
  O       1.983956      1.296420     -0.340429
  O       0.982937      0.246364     -0.291035
  H       1.481554      2.070546     -0.034567
  H       0.855781      0.131792      0.666006
>
4
Coordinates from ORCA-job h2o2-scan Relaxed Surface Scan Step 22 E -151.467848933645
  O       1.974076      1.304292     -0.375924
  O       1.010155      0.220312     -0.290330
  H       1.483655      2.054091      0.001541
  H       0.836342      0.166428      0.664689
>
4
Coordinates from ORCA-job h2o2-scan Relaxed Surface Scan Step 23 E -151.465994436535
  O       1.960531      1.314072     -0.410139
  O       1.038349      0.195172     -0.285512
  H       1.489501      2.038522      0.034946
  H       0.815847      0.197356      0.660680
>
4
Coordinates from ORCA-job h2o2-scan Relaxed Surface Scan Step 24 E -151.464124215769
  O       1.943280      1.325206     -0.442722
  O       1.067511      0.171586     -0.276807
  H       1.499161      2.024369      0.065308
  H       0.794276      0.223960      0.654197
>
4
Coordinates from ORCA-job h2o2-scan Relaxed Surface Scan Step 25 E -151.462414329643
  O       1.922418      1.337085     -0.473282
  O       1.097521      0.150135     -0.264592
  H       1.512520      2.011921      0.092419
  H       0.771769      0.245982      0.645430
>
4
Coordinates from ORCA-job h2o2-scan Relaxed Surface Scan Step 26 E -151.461042774483
  O       1.898187      1.349117     -0.501467
  O       1.128190      0.131354     -0.249325
  H       1.529251      2.001102      0.116235
  H       0.748599      0.263549      0.634532
>
4
Coordinates from ORCA-job h2o2-scan Relaxed Surface Scan Step 27 E -151.460156504942
  O       1.870878      1.360774     -0.526993
  O       1.159316      0.115695     -0.231457
  H       1.548932      1.991624      0.136821
  H       0.725103      0.277029      0.621604
>
4
Coordinates from ORCA-job h2o2-scan Relaxed Surface Scan Step 28 E -151.459853085514
  O       1.840786      1.371677     -0.549618
  O       1.190672      0.103465     -0.211370
  H       1.571222      1.983246      0.154239
  H       0.701548      0.286734      0.606723
>
4
Coordinates from ORCA-job h2o2-scan Relaxed Surface Scan Step 29 E -151.460161798965
  O       1.808230      1.381641     -0.569114
  O       1.221959      0.094823     -0.189330
  H       1.595932      1.975881      0.168472
  H       0.678108      0.292778      0.589948
>
4
Coordinates from ORCA-job h2o2-scan Relaxed Surface Scan Step 30 E -151.461046915191
  O       1.773637      1.390774     -0.585380
  O       1.252787      0.089642     -0.165509
  H       1.622849      1.969379      0.179534
  H       0.654955      0.295327      0.571330
>
4
Coordinates from ORCA-job h2o2-scan Relaxed Surface Scan Step 31 E -151.462415025687
  O       1.737347      1.398873     -0.597877
  O       1.282637      0.088292     -0.140094
  H       1.652520      1.964817      0.186881
  H       0.631723      0.293139      0.551065
>
4
Coordinates from ORCA-job h2o2-scan Relaxed Surface Scan Step 32 E -151.464118745359
  O       1.699988      1.406276     -0.606401
  O       1.310839      0.090479     -0.113205
  H       1.684785      1.962235      0.190348
  H       0.608616      0.286132      0.529233
>
4
Coordinates from ORCA-job h2o2-scan Relaxed Surface Scan Step 33 E -151.465992744788
  O       1.662221      1.413343     -0.610732
  O       1.336686      0.095896     -0.084965
  H       1.719531      1.961789      0.189717
  H       0.585790      0.274094      0.505954
>
4
Coordinates from ORCA-job h2o2-scan Relaxed Surface Scan Step 34 E -151.467848769767
  O       1.624689      1.420464     -0.610757
  O       1.359539      0.104147     -0.055490
  H       1.756455      1.963379      0.184895
  H       0.563546      0.257132      0.481327
>
4
Coordinates from ORCA-job h2o2-scan Relaxed Surface Scan Step 35 E -151.469534399855
  O       1.587923      1.428009     -0.606525
  O       1.378935      0.114797     -0.024882
  H       1.795032      1.966552      0.175969
  H       0.542337      0.235764      0.455412
>
4
Coordinates from ORCA-job h2o2-scan Relaxed Surface Scan Step 36 E -151.470935938004
  O       1.552323      1.436320     -0.598203
  O       1.394604      0.127381      0.006779
  H       1.834629      1.970670      0.163141
  H       0.522672      0.210751      0.428257
>
4
Coordinates from ORCA-job h2o2-scan Relaxed Surface Scan Step 37 E -151.471982611760
  O       1.517979      1.445895     -0.586364
  O       1.406692      0.141144      0.039591
  H       1.874365      1.974620      0.146917
  H       0.505192      0.183464      0.399831
