
                                 *****************
                                 * O   R   C   A *
                                 *****************

                                            #,                                       
                                            ###                                      
                                            ####                                     
                                            #####                                    
                                            ######                                   
                                           ########,                                 
                                     ,,################,,,,,                         
                               ,,#################################,,                 
                          ,,##########################################,,             
                       ,#########################################, ''#####,          
                    ,#############################################,,   '####,        
                  ,##################################################,,,,####,       
                ,###########''''           ''''###############################       
              ,#####''   ,,,,##########,,,,          '''####'''          '####       
            ,##' ,,,,###########################,,,                        '##       
           ' ,,###''''                  '''############,,,                           
         ,,##''                                '''############,,,,        ,,,,,,###''
      ,#''                                            '''#######################'''  
     '                                                          ''''####''''         
             ,#######,   #######,   ,#######,      ##                                
            ,#'     '#,  ##    ##  ,#'     '#,    #''#        ,####,    ,#,          
            ##       ##  ##   ,#'  ##            #'  '#       #'       ,# #          
            ##       ##  #######   ##           ,######,      #####,      #          
            '#,     ,#'  ##    ##  '#,     ,#' ,#      #,     #,   #      #          
             '#######'   ##     ##  '#######'  #'      '#     '####' #    #          



                #########################################################
                #                        -***-                          #
                #          Department of theory and spectroscopy        #
                #                                                       #
                #                      Frank Neese                      #
                #                                                       #
                #     Directorship, Architecture, Infrastructure        #
                #                    SHARK, DRIVERS                     #
                #        Core code/Algorithms in most modules           #
                #                                                       #
                #        Max Planck Institute fuer Kohlenforschung      #
                #                Kaiser Wilhelm Platz 1                 #
                #                 D-45470 Muelheim/Ruhr                 #
                #                      Germany                          #
                #                                                       #
                #                  All rights reserved                  #
                #                        -***-                          #
                #########################################################


                         Program Version 6.1.0  -  RELEASE   -
                                (GIT: $679e74b$)
                          ($2025-06-10 18:02:51 +0200$)


 With contributions from (in alphabetic order):
[Max-Planck-Institut fuer Kohlenforschung]                               
  Daniel Aravena         : Magnetic Suceptibility                        
  Michael Atanasov       : Ab Initio Ligand Field Theory (pilot matlab implementation)
  Alexander A. Auer      : GIAO ZORA, VPT2 properties, NMR spectrum      
  Ute Becker             : All parallelization in ORCA, NUMFREQ, NUMCALC 
  Giovanni Bistoni       : ED, misc. LED, open-shell LED, HFLD           
  Dmytro Bykov           : pre 5.0 version of the SCF Hessian            
  Marcos Casanova-Páez   : Triplet and SCS-CIS(D). UHF-(DLPNO)-IP/EA/STEOM-CCSD. UHF-CVS-IP/STEOM-CCSD   
  Vijay G. Chilkuri      : MRCI spin determinant printing, contributions to CSF-ICE 
  Pauline Colinet        : FMM embedding                                 
  Dipayan Datta          : RHF DLPNO-CCSD density                        
  Achintya Kumar Dutta   : EOM-CC, STEOM-CC                              
  Nicolas Foglia         : Exact transition moments, OPA infrastructure, MCD improvements    
  Dmitry Ganyushin       : Spin-Orbit,Spin-Spin,Magnetic field MRCI      
  Miquel Garcia-Rates    : C-PCM and meta-GGA Hessian, CCSD/C-PCM, Gaussian charge scheme 
  Tiago L. C. Gouveia    : GS-ROHF, GS-ROCIS                             
  Yang Guo               : DLPNO-NEVPT2, F12-NEVPT2, CIM, IAO-localization        
  Andreas Hansen         : Spin unrestricted coupled pair/coupled cluster methods 
  Ingolf Harden          : AUTO-CI MPn and infrastructure                
  Benjamin Helmich-Paris : MC-RPA, TRAH-(SCF,CASSCF), AVAS, COSX integrals, SCF dyn. polar., MC-PDFT, srDFT 
  Lee Huntington         : MR-EOM, pCC                                   
  Robert Izsak           : Overlap fitted RIJCOSX, COSX-SCS-MP3, EOM     
  Riya Kayal             : Wick's Theorem for AUTO-CI, AUTO-CI UHF-CCSDT 
  Emily Kempfer          : AUTO-CI RHF CISDT and CCSDT, approximate NEVPT4
  Christian Kollmar      : KDIIS, OOCD, Brueckner-CCSD(T), CCSD density, CASPT2, CASPT2-K, improved NEVPT2 
  Axel Koslowski         : Symmetry handling                             
  Simone Kossmann        : meta-GGA functionals, TD-DFT gradient, OOMP2, (MP2 Hessian; deprecated post 5.0) 
  Lucas Lang             : DCDCAS, Hyperfine gauge corrections, ICE-SOC+SSC
  Marvin Lechner         : AUTO-CI (C++ implementation), FIC-MRCC        
  Spencer Leger          : CASSCF response                               
  Dagmar Lenk            : GEPOL surface, SMD, ORCA-2-JSON               
  Dimitrios Liakos       : Extrapolation schemes; Compound Job, Property file
  Dimitrios Manganas     : Further ROCIS development; embedding schemes. LFT, Crystal Embedding 
  Dimitrios Pantazis     : SARC Basis sets                               
  Anastasios Papadopoulos: AUTO-CI, single reference methods and gradients 
  Taras Petrenko         : pre 6.0 DFT Hessian and TD-DFT gradient,  ECA, NRVS 
  Petra Pikulova         : Analytic Raman intensities                    
  Peter Pinski           : DLPNO-MP2, DLPNO-MP2 Gradient                 
  Shashank Vittal Rao    : ES-AILFT, MagRelax                            
  Christoph Reimann      : Effective Core Potentials                     
  Marius Retegan         : Local ZFS, SOC                                
  Christoph Riplinger    : Optimizer, TS searches, QM/MM, DLPNO-CCSD(T), (RO)-DLPNO pert. Triples 
  Michael Roemelt        : Original ROCIS implementation, recursive CI coupling coefficients
  Masaaki Saitow         : Open-shell DLPNO-CCSD energy and density      
  Barbara Sandhoefer     : DKH picture change effects                    
  Yorick L. A. Schmerwitz: GMF and freeze-and-release deltaSCF, NEB S-IDPP initial path                    
  Kantharuban Sivalingam : CASSCF convergence/infrastructure, NEVPT2, NEVPT3, NEVPT4(SD), FIC-MRCI and CEPA variants
  Bernardo de Souza      : ESD, SOC TD-DFT                               
  Georgi L. Stoychev     : AutoAux, RI-MP2 NMR, DLPNO-MP2 response, X2C  
  Van Anh Tran           : RI-MP2 g-tensors                              
  Willem Van den Heuvel  : Paramagnetic NMR                              
  Zikuan Wang            : NOTCH, Electric field optimization            
  Frank Wennmohs         : Technical directorship and infrastructure     
  Hang Xu                : AUTO-CI-Response properties                   
                                                                         
[FACCTs GmbH]                                                            
  Markus Bursch, Nicolas Foglia, Miquel Garcia-Rates, Ingolf Harden, Hagen Neugebauer, Anastasios Papadopoulos, 
  Christoph Riplinger, Bernardo de Souza, Georgi L. Stoychev                                                    
                                                                 
  APM, various basis sets, CI-OPT, improved COSX, DLPNO-Multilevel,           
  DOCKER, DRACO, updates on ESD, Fragmentator, GOAT, IRC, LR-CPCM, L-BFGS, MBIS, meta-GGA TD-DFT gradient, ML-optimized integration grids, 
  MM, NACMEs, nearIR, NEB, NEB-TS, NL-DFT gradient (VV10), 2- and 3-layer-ONIOM, interface openCOSMO-RS, QMMM,   
  Crystal-QMMM, RESP, rigid body optimization, SF, symmetry and pop. for TD-DFT, various functionals, SOLVATOR                                   
                                                                         
[Other institutions]                                                     
  V. Asgeirsson          : NEB                                           
  Christoph Bannwarth    : sTDA-DFT, sTD-DFT, PBEh-3c, B97-3c, D3        
  Giovanni Bistoni       : ETS/NOCV, ADLD/ADEX, COVALED                  
  Martin Brehm           : Molecular dynamics                            
  Ronald Cardenas        : ETS/NOCV                                      
  Martina Colucci        : COVALED                                       
  Sebastian Ehlert       : rSCAN, r2SCAN, r2SCAN-3c, D4, dhf basis sets  
  Marvin Friede          : D4 for Fr, Ra, Ac-Lr                          
  Lars Goerigk           : TD-DFT with DH, B97 family of functionals     
  Stefan Grimme          : VdW corrections, initial TS optimization, DFT functionals, gCP, sTDA/sTD-DF 
  Waldemar Hujo          : DFT-NL                                        
  H. Jonsson             : NEB                                           
  Holger Kruse           : gCP                                           
  Marcel Mueller         : wB97X-3c, vDZP basis set                      
  Hagen Neugebauer       : wr2SCAN, Native XTB                           
  Gianluca Regni         : ADLD/ADEX                                     
  Tobias Risthaus        : pre 6.0 range-separated hybrid DFT and stability analysis
  Lukas Wittmann         : regularized MP2, r2SCAN double-hybrids, wr2SCAN        
                                                                         
We gratefully acknowledge several colleagues who have allowed us to      
interface, adapt or use parts of their codes:                            
  Ed Valeev, F. Pavosevic, A. Kumar             : LibInt (2-el integral package), F12 methods 
  Garnet Chan, S. Sharma, J. Yang, R. Olivares  : DMRG                   
  Ulf Ekstrom                                   : XCFun DFT Library      
  Mihaly Kallay                                 : mrcc  (arbitrary order and MRCC methods)
  Frank Weinhold                                : gennbo (NPA and NBO analysis)           
  Simon Mueller                                 : openCOSMO-RS                            
  Christopher J. Cramer and Donald G. Truhlar   : smd solvation model                     
  S Lehtola, MJT Oliveira, MAL Marques          : LibXC Library                           
  Liviu Ungur et al                             : ANISO software                          


 Your calculation uses the libint2 library for the computation of 2-el integrals
 For citations please refer to: http://libint.valeyev.net

 Your ORCA version has been built with support for libXC version: 7.0.0
 For citations please refer to: https://libxc.gitlab.io

 This ORCA versions uses:
   CBLAS   interface :  Fast vector & matrix operations
   LAPACKE interface :  Fast linear algebra routines
   SCALAPACK package :  Parallel linear algebra routines
   Shared memory     :  Shared parallel matrices
   BLAS/LAPACK       :  OpenBLAS 0.3.29  USE64BITINT DYNAMIC_ARCH NO_AFFINITY Haswell SINGLE_THREADED
        Core in use  :  Haswell
   Copyright (c) 2011-2014, The OpenBLAS Project


  ***********************************
  * Starting time: Mon Aug  4 11:17:34 2025
  * Host name:     debian
  * Process ID:    5669
  * Working dir.:  /home/uni/mm/lab4/cyclohexane/optts-irc-numfreq
  ***********************************

================================================================================

----- Orbital basis set information -----
Your calculation utilizes the basis: 6-31G(d,p)
   H-He, Li-Ne : W. J. Hehre, R. Ditchfield and J.A. Pople, J. Chem. Phys. 56, 2257 (1972).
                 Note: He and Ne are unpublished basis sets taken from the Gaussian program.
                 Note: Li and B from J. D. Dill and J. A. Pople, J. Chem. Phys. 62, 2921 (1975).
   Na - Ar     : M. M. Francl, W. J. Pietro, W. J. Hehre, J. S. Binkley, M. S. Gordon, 
                 D. J. DeFrees and J. A. Pople, J. Chem. Phys. 77, 3654 (1982).
   K - Zn      : V. A. Rassolov, J. A. Pople, M. A. Ratner, and T. L. Windus, J. Chem. Phys. 109, 1223 (1998).

================================================================================
                                        WARNINGS
                       Please study these warnings very carefully!
================================================================================


WARNING: The frozen-core approximation for MP2-gradient calculations is turned on by default.

WARNING: The environment variable RSH_COMMAND is not set!
  ===> : All Displacements for the Numerical Hessian or Gradient calculation
         will be started on localhost

WARNING: Geometry Optimization
  ===> : Switching off AutoStart
         For restart on a previous wavefunction, please use MOREAD

WARNING: Post HF methods need fully converged wavefunctions
  ===> : Setting SCFConvForced true
         You can overwrite this default with %scf ConvForced false 


================================================================================
                                       INPUT FILE
================================================================================
NAME = cyclohexane.inp
|  1> ! MP2 6-31G(d,p) optts numfreq irc
|  2> 
|  3> %pal
|  4>   nprocs=9
|  5> end
|  6> 
|  7> * xyz 0 1
|  8> C     -3.532497    1.667349   -0.155022
|  9> C     -2.770872    0.543186   -0.845226
| 10> C     -1.422876    2.941608   -0.841780
| 11> C     -1.335170    0.443172   -0.338395
| 12> H     -0.770041   -0.232092   -0.991589
| 13> C     -2.822507    3.020242   -0.239812
| 14> H     -3.676713    1.406277    0.901022
| 15> C     -0.619410    1.792377   -0.246269
| 16> H     -0.897158    3.889141   -0.678450
| 17> H     -0.407301    2.012226    0.807054
| 18> H     -2.766456    0.715361   -1.928305
| 19> H     -4.536877    1.751142   -0.586141
| 20> H     -3.285908   -0.410515   -0.685305
| 21> H     -1.332053   -0.025340    0.653815
| 22> H      0.354838    1.726779   -0.744542
| 23> H     -1.497163    2.811896   -1.928470
| 24> H     -3.427783    3.719560   -0.828481
| 25> H     -2.761072    3.449374    0.767724
| 26> *
| 27> 
| 28> 
| 29>                          ****END OF INPUT****
================================================================================

                       *****************************
                       * Geometry Optimization Run *
                       *****************************

Geometry optimization settings:
Update method            Update   .... Bofill
Choice of coordinates    CoordSys .... (2022) Redundant Internals
Initial Hessian          InHess   .... Almloef's Model
Max. no of cycles        MaxIter  .... 54

Convergence Tolerances:
Energy Change            TolE     ....  5.0000e-06 Eh
Max. Gradient            TolMAXG  ....  3.0000e-04 Eh/bohr
RMS Gradient             TolRMSG  ....  1.0000e-04 Eh/bohr
Max. Displacement        TolMAXD  ....  4.0000e-03 bohr
RMS Displacement         TolRMSD  ....  2.0000e-03 bohr
Strict Convergence                .... False

------------------------------------------------------------------------------
                        ORCA OPTIMIZATION COORDINATE SETUP
------------------------------------------------------------------------------

The optimization will be done in redundant internal coordinates (2022)
Making redundant internal coordinates   ...  (2022 redundants) done
Following TS mode number                ...     0
Evaluating the initial hessian          ...  (Almloef) done
Evaluating the coordinates              ...  done
Calculating the B-matrix                .... done
Calculating the G-matrix                .... done
The number of degrees of freedom        ....   90

    -----------------------------------------------------------------
                    Redundant Internal Coordinates


    -----------------------------------------------------------------
         Definition                    Initial Value    Approx d2E/dq
    -----------------------------------------------------------------
      1. B(C   1,C   0)                  1.5232         0.382997   
      2. B(C   3,C   1)                  1.5258         0.379358   
      3. B(H   4,C   3)                  1.0964         0.351779   
      4. B(C   5,C   2)                  1.5256         0.379635   
      5. B(C   5,C   0)                  1.5302         0.373263   
      6. B(H   6,C   0)                  1.0974         0.350502   
      7. B(C   7,C   2)                  1.5235         0.382662   
      8. B(C   7,C   3)                  1.5301         0.373461   
      9. B(H   8,C   2)                  1.0958         0.352451   
     10. B(H   9,C   7)                  1.0967         0.351308   
     11. B(H  10,C   1)                  1.0967         0.351361   
     12. B(H  11,C   0)                  1.0962         0.351985   
     13. B(H  12,C   1)                  1.0956         0.352742   
     14. B(H  13,C   3)                  1.0973         0.350614   
     15. B(H  14,C   7)                  1.0962         0.351941   
     16. B(H  15,C   2)                  1.0969         0.351058   
     17. B(H  16,C   5)                  1.0963         0.351825   
     18. B(H  17,C   5)                  1.0968         0.351165   
     19. A(C   5,C   0,H  11)          109.6175         0.323064   
     20. A(C   1,C   0,C   5)          113.2903         0.364851   
     21. A(C   1,C   0,H   6)          109.0379         0.324207   
     22. A(H   6,C   0,H  11)          106.0366         0.288577   
     23. A(C   1,C   0,H  11)          109.6537         0.324432   
     24. A(C   5,C   0,H   6)          108.9438         0.322840   
     25. A(C   3,C   1,H  12)          109.6809         0.324038   
     26. A(C   0,C   1,H  12)          109.9520         0.324546   
     27. A(C   0,C   1,C   3)          111.6133         0.365864   
     28. A(H  10,C   1,H  12)          106.4217         0.288784   
     29. A(C   0,C   1,H  10)          109.4903         0.324337   
     30. A(C   3,C   1,H  10)          109.5452         0.323829   
     31. A(C   7,C   2,H  15)          109.4972         0.324244   
     32. A(C   5,C   2,H  15)          109.5638         0.323822   
     33. A(C   5,C   2,C   7)          111.6224         0.365854   
     34. A(C   7,C   2,H   8)          109.9372         0.324455   
     35. A(C   5,C   2,H   8)          109.6787         0.324033   
     36. A(H   8,C   2,H  15)          106.4029         0.288708   
     37. A(C   7,C   3,H  13)          108.7072         0.322885   
     38. A(H   4,C   3,H  13)          105.9199         0.288565   
     39. A(C   1,C   3,H  13)          109.3311         0.323716   
     40. A(C   1,C   3,H   4)          109.1162         0.323892   
     41. A(H   4,C   3,C   7)          109.7458         0.323061   
     42. A(C   1,C   3,C   7)          113.7261         0.364288   
     43. A(C   2,C   5,H  17)          109.3433         0.323838   
     44. A(H  16,C   5,H  17)          105.9374         0.288642   
     45. A(C   0,C   5,H  17)          108.7230         0.322940   
     46. A(C   2,C   5,H  16)          109.1180         0.323938   
     47. A(C   0,C   5,H  16)          109.7274         0.323040   
     48. A(C   0,C   5,C   2)          113.7004         0.364301   
     49. A(H   9,C   7,H  14)          106.0608         0.288675   
     50. A(C   3,C   7,H   9)          108.9692         0.322990   
     51. A(C   3,C   7,H  14)          109.6092         0.323085   
     52. A(C   2,C   7,H  14)          109.6440         0.324378   
     53. A(C   2,C   7,H   9)          109.0386         0.324282   
     54. A(C   2,C   7,C   3)          113.2619         0.364829   
     55. D(H  10,C   1,C   0,C   5)    -67.7894         0.011682   
     56. D(C   3,C   1,C   0,C   5)     53.6737         0.011682   
     57. D(C   3,C   1,C   0,H   6)    -67.8219         0.011682   
     58. D(H  10,C   1,C   0,H   6)    170.7150         0.011682   
     59. D(C   3,C   1,C   0,H  11)    176.4850         0.011682   
     60. D(H  10,C   1,C   0,H  11)     55.0219         0.011682   
     61. D(H   4,C   3,C   1,C   0)   -168.7762         0.011472   
     62. D(C   7,C   3,C   1,H  12)   -168.0024         0.011472   
     63. D(C   7,C   3,C   1,C   0)    -45.8942         0.011472   
     64. D(H   4,C   3,C   1,H  12)     69.1156         0.011472   
     65. D(H   4,C   3,C   1,H  10)    -47.3448         0.011472   
     66. D(C   7,C   3,C   1,H  10)     75.5371         0.011472   
     67. D(C   2,C   5,C   0,H   6)    114.3825         0.011126   
     68. D(C   2,C   5,C   0,C   1)     -7.1659         0.011126   
     69. D(H  16,C   5,C   2,H  15)    -47.3173         0.011488   
     70. D(C   2,C   5,C   0,H  11)   -129.9972         0.011126   
     71. D(H  16,C   5,C   2,C   7)   -168.7760         0.011488   
     72. D(C   0,C   5,C   2,H  15)     75.5243         0.011488   
     73. D(C   0,C   5,C   2,H   8)   -168.0285         0.011488   
     74. D(C   0,C   5,C   2,C   7)    -45.9345         0.011488   
     75. D(H  16,C   5,C   0,H  11)     -7.4907         0.011126   
     76. D(H  16,C   5,C   2,H   8)     69.1299         0.011488   
     77. D(H  16,C   5,C   0,H   6)   -123.1110         0.011126   
     78. D(H  16,C   5,C   0,C   1)    115.3406         0.011126   
     79. D(H   9,C   7,C   2,H  15)    170.7043         0.011662   
     80. D(H   9,C   7,C   2,H   8)     54.1467         0.011662   
     81. D(H   9,C   7,C   2,C   5)    -67.7984         0.011662   
     82. D(C   3,C   7,C   2,H  15)    -67.7862         0.011662   
     83. D(C   3,C   7,C   2,H   8)    175.6562         0.011662   
     84. D(C   2,C   7,C   3,C   1)     -7.1907         0.011137   
     85. D(C   3,C   7,C   2,C   5)     53.7111         0.011662   
     86. D(H   9,C   7,C   3,H  13)     -7.6871         0.011137   
     87. D(H   9,C   7,C   3,H   4)   -123.1060         0.011137   
     88. D(H   9,C   7,C   3,C   1)    114.3579         0.011137   
     89. D(C   2,C   7,C   3,H  13)   -129.2357         0.011137   
     90. D(C   2,C   7,C   3,H   4)    115.3455         0.011137   
    -----------------------------------------------------------------

Number of atoms                         .... 18
Number of degrees of freedom            .... 90


         *************************************************************
         *                GEOMETRY OPTIMIZATION CYCLE   1            *
         *************************************************************
---------------------------------
CARTESIAN COORDINATES (ANGSTROEM)
---------------------------------
  C     -3.532497    1.667349   -0.155022
  C     -2.770872    0.543186   -0.845226
  C     -1.422876    2.941608   -0.841780
  C     -1.335170    0.443172   -0.338395
  H     -0.770041   -0.232092   -0.991589
  C     -2.822507    3.020242   -0.239812
  H     -3.676713    1.406277    0.901022
  C     -0.619410    1.792377   -0.246269
  H     -0.897158    3.889141   -0.678450
  H     -0.407301    2.012226    0.807054
  H     -2.766456    0.715361   -1.928305
  H     -4.536877    1.751142   -0.586141
  H     -3.285908   -0.410515   -0.685305
  H     -1.332053   -0.025340    0.653815
  H      0.354838    1.726779   -0.744542
  H     -1.497163    2.811896   -1.928470
  H     -3.427783    3.719560   -0.828481
  H     -2.761072    3.449374    0.767724

----------------------------
CARTESIAN COORDINATES (A.U.)
----------------------------
  NO LB      ZA    FRAG     MASS         X           Y           Z
   0 C     6.0000    0    12.011   -6.675452    3.150833   -0.292949
   1 C     6.0000    0    12.011   -5.236189    1.026473   -1.597246
   2 C     6.0000    0    12.011   -2.688846    5.558834   -1.590734
   3 C     6.0000    0    12.011   -2.523106    0.837474   -0.639474
   4 H     1.0000    0     1.008   -1.455167   -0.438590   -1.873832
   5 C     6.0000    0    12.011   -5.333765    5.707430   -0.453179
   6 H     1.0000    0     1.008   -6.947981    2.657478    1.702685
   7 C     6.0000    0    12.011   -1.170515    3.387102   -0.465381
   8 H     1.0000    0     1.008   -1.695383    7.349411   -1.282085
   9 H     1.0000    0     1.008   -0.769687    3.802556    1.525111
  10 H     1.0000    0     1.008   -5.227844    1.351836   -3.643968
  11 H     1.0000    0     1.008   -8.573455    3.309179   -1.107646
  12 H     1.0000    0     1.008   -6.209466   -0.775761   -1.295039
  13 H     1.0000    0     1.008   -2.517215   -0.047886    1.235531
  14 H     1.0000    0     1.008    0.670547    3.263139   -1.406980
  15 H     1.0000    0     1.008   -2.829228    5.313713   -3.644280
  16 H     1.0000    0     1.008   -6.477571    7.028950   -1.565602
  17 H     1.0000    0     1.008   -5.217670    6.518372    1.450788

--------------------------------
INTERNAL COORDINATES (ANGSTROEM)
--------------------------------
 C      0   0   0     0.000000000000     0.00000000     0.00000000
 C      1   0   0     1.523219174252     0.00000000     0.00000000
 C      1   2   0     2.558490436427    80.42464731     0.00000000
 C      2   1   3     1.525818041433   111.61334155    49.71299902
 H      4   2   1     1.096364290723   109.11618336   191.22384685
 C      3   1   2     1.525619780660    33.20619821   173.32733340
 H      1   2   3     1.097353987452   109.03793176   242.46514298
 C      3   1   2     1.523457533257    87.37693448   311.36182246
 H      3   1   2     1.095844373309   141.83263632   191.75200673
 H      8   3   1     1.096728386161   109.03863055   269.00254330
 H      2   1   3     1.096687672914   109.49028929   288.24987470
 H      1   2   3     1.096204380310   109.65371274   126.77199016
 H      2   1   3     1.095619644283   109.95200726   171.66507205
 H      4   2   1     1.097266555552   109.33114347    75.80491967
 H      8   3   1     1.096238224857   109.64395988   153.28544533
 H      3   1   2     1.096922475571    98.69546982    60.69069335
 H      6   3   1     1.096328369085   109.11795024   237.15841365
 H      6   3   1     1.096839698381   109.34327868   121.71081998

---------------------------
INTERNAL COORDINATES (A.U.)
---------------------------
 C      0   0   0     0.000000000000     0.00000000     0.00000000
 C      1   0   0     2.878467081275     0.00000000     0.00000000
 C      1   2   0     4.834846241103    80.42464731     0.00000000
 C      2   1   3     2.883378228504   111.61334155    49.71299902
 H      4   2   1     2.071828252478   109.11618336   191.22384685
 C      3   1   2     2.883003569940    33.20619821   173.32733340
 H      1   2   3     2.073698508250   109.03793176   242.46514298
 C      3   1   2     2.878917514515    87.37693448   311.36182246
 H      3   1   2     2.070845750953   141.83263632   191.75200673
 H      8   3   1     2.072516293141   109.03863055   269.00254330
 H      2   1   3     2.072439356255   109.49028929   288.24987470
 H      1   2   3     2.071526065590   109.65371274   126.77199016
 H      2   1   3     2.070421074638   109.95200726   171.66507205
 H      4   2   1     2.073533285904   109.33114347    75.80491967
 H      8   3   1     2.071590022515   109.64395988   153.28544533
 H      3   1   2     2.072883068972    98.69546982    60.69069335
 H      6   3   1     2.071760370420   109.11795024   237.15841365
 H      6   3   1     2.072726642753   109.34327868   121.71081998

---------------------
BASIS SET INFORMATION
---------------------
There are 2 groups of distinct atoms

 Group   1 Type C   : 10s4p1d contracted to 3s2p1d pattern {631/31/1}
 Group   2 Type H   : 4s1p contracted to 2s1p pattern {31/1}

Atom   0C    basis set group =>   1
Atom   1C    basis set group =>   1
Atom   2C    basis set group =>   1
Atom   3C    basis set group =>   1
Atom   4H    basis set group =>   2
Atom   5C    basis set group =>   1
Atom   6H    basis set group =>   2
Atom   7C    basis set group =>   1
Atom   8H    basis set group =>   2
Atom   9H    basis set group =>   2
Atom  10H    basis set group =>   2
Atom  11H    basis set group =>   2
Atom  12H    basis set group =>   2
Atom  13H    basis set group =>   2
Atom  14H    basis set group =>   2
Atom  15H    basis set group =>   2
Atom  16H    basis set group =>   2
Atom  17H    basis set group =>   2


           ************************************************************
           *        Program running with 9 parallel MPI-processes     *
           *              working on a common directory               *
           ************************************************************
------------------------------------------------------------------------------
                             ORCA STARTUP CALCULATIONS
------------------------------------------------------------------------------
------------------------------------------------------------------------------
                   ___                                                        
                  /   \      - P O W E R E D   B Y -                         
                 /     \                                                     
                 |  |  |   _    _      __       _____    __    __             
                 |  |  |  | |  | |    /  \     |  _  \  |  |  /  |          
                  \  \/   | |  | |   /    \    | | | |  |  | /  /          
                 / \  \   | |__| |  /  /\  \   | |_| |  |  |/  /          
                |  |  |   |  __  | /  /__\  \  |    /   |      \           
                |  |  |   | |  | | |   __   |  |    \   |  |\   \          
                \     /   | |  | | |  |  |  |  | |\  \  |  | \   \       
                 \___/    |_|  |_| |__|  |__|  |_| \__\ |__|  \__/        
                                                                              
                      - O R C A' S   B I G   F R I E N D -                    
                                      &                                       
                       - I N T E G R A L  F E E D E R -                       
                                                                              
 v1 FN, 2020, v2 2021, v3 2022-2024                                           
------------------------------------------------------------------------------


----------------------
SHARK INTEGRAL PACKAGE
----------------------

Number of atoms                             ...     18
Number of basis functions                   ...    144
Number of shells                            ...     72
Maximum angular momentum                    ...      2
Integral batch strategy                     ... SHARK/LIBINT Hybrid
RI-J (if used) integral strategy            ... SPLIT-RIJ (Revised 2003 algorithm where possible)
Printlevel                                  ...      1
Contraction scheme used                     ... SEGMENTED contraction
Prescreening option                         ... SCHWARTZ
   Thresh                                   ... 2.500e-11
   Tcut                                     ... 2.500e-12
   Tpresel                                  ... 2.500e-12 
Coulomb Range Separation                    ... NOT USED
Exchange Range Separation                   ... NOT USED
Multipole approximations                    ... NOT USED
Finite Nucleus Model                        ... NOT USED
CABS basis                                  ... NOT available
Auxiliary Coulomb fitting basis             ... NOT available
Auxiliary J/K fitting basis                 ... NOT available
Auxiliary Correlation fitting basis         ... NOT available
Auxiliary 'external' fitting basis          ... NOT available

Checking pre-screening integrals            ... done (  0.0 sec) Dimension = 72
   => SHARK Basis and OBASIS are compatible. Storing Pre-screening
Shell pair information
Shell pair cut-off parameter TPreSel        ...   2.5e-12
Total number of shell pairs                 ...      2628
Shell pairs after pre-screening             ...      2558
Total number of primitive shell pairs       ...     11487
Primitive shell pairs kept                  ...      8237
          la=0 lb=0:    886 shell pairs
          la=1 lb=0:    972 shell pairs
          la=1 lb=1:    283 shell pairs
          la=2 lb=0:    252 shell pairs
          la=2 lb=1:    144 shell pairs
          la=2 lb=2:     21 shell pairs

Checking whether 4 symmetric matrices of dimension 144 fit in memory
:Max Core in MB      =   4096.00
 MB in use           =      4.65
 MB left             =   4091.35
 MB needed           =      0.32
 Data fit in memory  = YES
Calculating Nuclear repulsion               ... done (  0.0 sec) ENN=    256.286019661440 Eh

Diagonalization of the overlap matrix:
Smallest eigenvalue                        ... 2.538e-03
Time for diagonalization                   ...    0.004 sec
Threshold for overlap eigenvalues          ... 1.000e-07
Number of eigenvalues below threshold      ... 0
Time for construction of square roots      ...    0.001 sec
Total time needed                          ...    0.006 sec

-------------------
DFT GRID GENERATION
-------------------

General Integration Accuracy     IntAcc      ... 4.388
Radial Grid Type                 RadialGrid  ... OptM3 with GC (2021)
Angular Grid (max. ang.)         AngularGrid ... 4 (Lebedev-302)
Angular grid pruning method      GridPruning ... 4 (adaptive)
Weight generation scheme         WeightScheme... mBecke (2022)
Basis function cutoff            BFCut       ... 1.0000e-11
Integration weight cutoff        WCut        ... 1.0000e-14
Partially contracted basis set               ... off
Rotationally invariant grid construction     ... off
Angular grids for H and He will be reduced by one unit

Total number of grid points                  ...    74245
Total number of batches                      ...     1169
Average number of points per batch           ...       63
Average number of grid points per atom       ...     4125
Grids setup in   0.3 sec
Initializing property integral containers    ... done (  0.0 sec)

SHARK setup successfully completed in   0.4 seconds

Maximum memory used throughout the entire STARTUP-calculation: 17.4 MB


           ************************************************************
           *        Program running with 9 parallel MPI-processes     *
           *              working on a common directory               *
           ************************************************************
-------------------------------------------------------------------------------
                                 ORCA GUESS
                   Start orbitals & Density for SCF / CASSCF
-------------------------------------------------------------------------------

------------
SCF SETTINGS
------------
Hamiltonian:
 Ab initio Hamiltonian  Method          .... Hartree-Fock(GTOs)


General Settings:
 Integral files         IntName         .... cyclohexane
 Hartree-Fock type      HFTyp           .... RHF
 Total Charge           Charge          ....    0
 Multiplicity           Mult            ....    1
 Number of Electrons    NEL             ....   48
 Basis Dimension        Dim             ....  144
 Nuclear Repulsion      ENuc            ....    256.2860196614 Eh

Convergence Acceleration:
 AO-DIIS                CNVDIIS         .... on
   Start iteration      DIISMaxIt       ....    12
   Startup error        DIISStart       ....  0.200000
   # of expansion vecs  DIISMaxEq       ....     5
   Bias factor          DIISBfac        ....   1.050
   Max. coefficient     DIISMaxC        ....  10.000
 MO-DIIS                CNVKDIIS        .... off
 Trust-Rad. Augm. Hess. CNVTRAH         .... auto
   Auto Start mean grad. ratio tolernc. ....  1.125000
   Auto Start start iteration           ....    50
   Auto Start num. interpolation iter.  ....    10
   Max. Number of Micro iterations      ....    24
   Max. Number of Macro iterations      .... Maxiter - #DIIS iter
   Number of Davidson start vectors     ....     2
   Converg. threshold    (grad. norm)   ....   1.000e-05
   Grad. Scal. Fac. for Micro threshold ....   0.100
   Minimum threshold for Micro iter.    ....   1.000e-02
   NR start threshold (gradient norm)   ....   1.000e-04
   Initial trust radius                 ....   0.400
   Minimum AH scaling param. (alpha)    ....   1.000
   Maximum AH scaling param. (alpha)    .... 1000.000
   Quad. conv. algorithm                .... NR
   White noise on init. David. guess    .... on
   Maximum white noise                  ....   0.010
   Pseudo random numbers                .... off
   Inactive MOs                         .... canonical
   Orbital update algorithm             .... Taylor
   Preconditioner                       .... Diag
   Full preconditioner red. dimension   ....   250
 SOSCF                 CNVSOSCF           .... on
   Start iteration     SOSCFMaxIt         ....   150
   Startup grad/error  SOSCFStart         ....  0.003300
   Hessian update      SOSCFHessUp        .... L-BFGS
   Autom. constraints  SOSCFAutoConstrain .... off
 Level Shifting         CNVShift        .... on
   Level shift para.    LevelShift      ....    0.2500
   Turn off err/grad.   ShiftErr        ....    0.0010
 Zerner damping         CNVZerner       .... off
 Static damping         CNVDamp         .... on
   Fraction old density DampFac         ....    0.7000
   Max. Damping (<1)    DampMax         ....    0.9800
   Min. Damping (>=0)   DampMin         ....    0.0000
   Turn off err/grad.   DampErr         ....    0.1000

SCF Procedure:
 Maximum # iterations   MaxIter         ....   125
 SCF integral mode      SCFMode         .... Direct
   Integral package                     .... SHARK and LIBINT hybrid scheme
 Reset frequency        DirectResetFreq ....    20
 Integral Threshold     Thresh          ....  2.500e-11 Eh
 Primitive CutOff       TCut            ....  2.500e-12 Eh

Convergence Tolerance:
 Convergence Check Mode ConvCheckMode   .... Total+1el-Energy
 Convergence forced     ConvForced      .... 1
 Energy Change          TolE            ....  1.000e-08 Eh
 1-El. energy change                    ....  1.000e-05 Eh
 Orbital Gradient       TolG            ....  1.000e-05
 Orbital Rotation angle TolX            ....  1.000e-05
 DIIS Error             TolErr          ....  5.000e-07

------------------------------
INITIAL GUESS: MODEL POTENTIAL
------------------------------
Loading Hartree-Fock densities                     ... done
Calculating cut-offs                               ... done
Initializing the effective Hamiltonian             ... done
Setting up the integral package (SHARK)            ... done
Starting the Coulomb interaction                   ... done (   0.0 sec)
Making the grid                                    ... done (   0.1 sec)
Mapping shells                                     ... done
Starting the XC term evaluation                    ... done (   0.0 sec)
Transforming the Hamiltonian                       ... done (   0.0 sec)
Diagonalizing the Hamiltonian                      ... done (   0.0 sec)
Back transforming the eigenvectors                 ... done (   0.0 sec)
Now organizing SCF variables                       ... done
                      ------------------
                      INITIAL GUESS DONE (   0.1 sec)
                      ------------------
             **** ENERGY FILE WAS UPDATED (cyclohexane.en.tmp) ****
Finished Guess after   0.4 sec
Maximum memory used throughout the entire GUESS-calculation: 7.3 MB


           ************************************************************
           *        Program running with 9 parallel MPI-processes     *
           *              working on a common directory               *
           ************************************************************

-------------------------------------------------------------------------------------------
                                      ORCA LEAN-SCF
                              memory conserving SCF solver
-------------------------------------------------------------------------------------------

----------------------------------------D-I-I-S--------------------------------------------
Iteration    Energy (Eh)           Delta-E    RMSDP     MaxDP     DIISErr   Damp  Time(sec)
-------------------------------------------------------------------------------------------
               ***  Starting incremental Fock matrix formation  ***
    1    -233.8828449263700122     0.00e+00  8.52e-03  5.03e-02  1.76e-01  0.700   0.4
    2    -234.0014738924091375    -1.19e-01  6.72e-03  3.81e-02  1.15e-01  0.700   0.3
                               ***Turning on AO-DIIS***
    3    -234.0713759980138775    -6.99e-02  3.64e-03  2.01e-02  6.84e-02  0.700   0.3
    4    -234.1151753215721101    -4.38e-02  8.14e-03  4.34e-02  4.65e-02  0.000   0.3
    5    -234.2116439917410275    -9.65e-02  7.11e-04  2.02e-03  4.33e-03  0.000   0.4
                              *** Initializing SOSCF ***
---------------------------------------S-O-S-C-F--------------------------------------
Iteration    Energy (Eh)           Delta-E    RMSDP     MaxDP     MaxGrad    Time(sec)
--------------------------------------------------------------------------------------
    6    -234.2119084343326563    -2.64e-04  4.31e-04  1.38e-03  1.29e-03     0.3
               *** Restarting incremental Fock matrix formation ***
    7    -234.2119553403954342    -4.69e-05  1.83e-04  6.67e-04  3.99e-04     0.4
    8    -234.2119602354728158    -4.90e-06  1.01e-04  3.43e-04  1.50e-04     0.3
    9    -234.2119608737767749    -6.38e-07  1.68e-05  5.51e-05  4.34e-05     0.3
   10    -234.2119609228881814    -4.91e-08  1.39e-06  5.90e-06  3.68e-06     0.3
   11    -234.2119609232655080    -3.77e-10  2.20e-07  1.13e-06  3.92e-07     0.2
                 **** Energy Check signals convergence ****

               *****************************************************
               *                     SUCCESS                       *
               *           SCF CONVERGED AFTER  11 CYCLES          *
               *****************************************************

             **** ENERGY FILE WAS UPDATED (cyclohexane.en.tmp) ****

----------------
TOTAL SCF ENERGY
----------------

Total Energy       :       -234.21196092195123 Eh           -6373.23147 eV

Components:
Nuclear Repulsion  :        256.28601966143975 Eh            6973.89714 eV
Electronic Energy  :       -490.49798058339098 Eh          -13347.12861 eV
One Electron Energy:       -823.02464256854023 Eh          -22395.63910 eV
Two Electron Energy:        332.52666198514925 Eh            9048.51049 eV

Virial components:
Potential Energy   :       -468.45910420394227 Eh          -12747.42029 eV
Kinetic Energy     :        234.24714328199104 Eh            6374.18883 eV
Virial Ratio       :          1.99984980666339

---------------
SCF CONVERGENCE
---------------

  Last Energy change         ...    3.7733e-10  Tolerance :   1.0000e-08
  Last MAX-Density change    ...    1.1287e-06  Tolerance :   1.0000e-07
  Last RMS-Density change    ...    2.1982e-07  Tolerance :   5.0000e-09
  Last DIIS Error            ...    1.2878e-03  Tolerance :   5.0000e-07
  Last Orbital Gradient      ...    3.9240e-07  Tolerance :   1.0000e-05
  Last Orbital Rotation      ...    6.5136e-07  Tolerance :   1.0000e-05


----------------
ORBITAL ENERGIES
----------------

  NO   OCC          E(Eh)            E(eV) 
   0   2.0000     -11.211212      -305.0726 
   1   2.0000     -11.211176      -305.0716 
   2   2.0000     -11.210022      -305.0402 
   3   2.0000     -11.209854      -305.0356 
   4   2.0000     -11.209432      -305.0241 
   5   2.0000     -11.209316      -305.0210 
   6   2.0000      -1.110749       -30.2250 
   7   2.0000      -0.998621       -27.1739 
   8   2.0000      -0.997782       -27.1510 
   9   2.0000      -0.837123       -22.7793 
  10   2.0000      -0.826316       -22.4852 
  11   2.0000      -0.713574       -19.4173 
  12   2.0000      -0.653073       -17.7710 
  13   2.0000      -0.643999       -17.5241 
  14   2.0000      -0.593999       -16.1635 
  15   2.0000      -0.557809       -15.1788 
  16   2.0000      -0.517474       -14.0812 
  17   2.0000      -0.514220       -13.9926 
  18   2.0000      -0.509370       -13.8607 
  19   2.0000      -0.498320       -13.5600 
  20   2.0000      -0.481454       -13.1010 
  21   2.0000      -0.428665       -11.6646 
  22   2.0000      -0.422597       -11.4994 
  23   2.0000      -0.419502       -11.4152 
  24   0.0000       0.212933         5.7942 
  25   0.0000       0.246844         6.7170 
  26   0.0000       0.276480         7.5234 
  27   0.0000       0.288654         7.8547 
  28   0.0000       0.292570         7.9612 
  29   0.0000       0.304162         8.2767 
  30   0.0000       0.322512         8.7760 
  31   0.0000       0.328421         8.9368 
  32   0.0000       0.335594         9.1320 
  33   0.0000       0.356862         9.7107 
  34   0.0000       0.360333         9.8052 
*Only the first 10 virtual orbitals were printed.

                    ********************************
                    * MULLIKEN POPULATION ANALYSIS *
                    ********************************

-----------------------
MULLIKEN ATOMIC CHARGES
-----------------------
   0 C :   -0.220317
   1 C :   -0.225300
   2 C :   -0.225438
   3 C :   -0.215992
   4 H :    0.111578
   5 C :   -0.215866
   6 H :    0.108123
   7 C :   -0.220225
   8 H :    0.112255
   9 H :    0.108313
  10 H :    0.107126
  11 H :    0.113032
  12 H :    0.112351
  13 H :    0.109252
  14 H :    0.113031
  15 H :    0.107094
  16 H :    0.111588
  17 H :    0.109395
Sum of atomic charges:    0.0000000

--------------------------------
MULLIKEN REDUCED ORBITAL CHARGES
--------------------------------
  0 C s       :     3.235250  s :     3.235250
      pz      :     1.027166  p :     2.936429
      px      :     0.998355
      py      :     0.910909
      dz2     :     0.012922  d :     0.048638
      dxz     :     0.006499
      dyz     :     0.007390
      dx2y2   :     0.011349
      dxy     :     0.010478

  1 C s       :     3.243546  s :     3.243546
      pz      :     1.006328  p :     2.932315
      px      :     0.930247
      py      :     0.995740
      dz2     :     0.015654  d :     0.049438
      dxz     :     0.006405
      dyz     :     0.005248
      dx2y2   :     0.010450
      dxy     :     0.011682

  2 C s       :     3.243671  s :     3.243671
      pz      :     1.007176  p :     2.932332
      px      :     0.932542
      py      :     0.992615
      dz2     :     0.015790  d :     0.049434
      dxz     :     0.007053
      dyz     :     0.004403
      dx2y2   :     0.009905
      dxy     :     0.012283

  3 C s       :     3.232012  s :     3.232012
      pz      :     1.042799  p :     2.935441
      px      :     0.933119
      py      :     0.959524
      dz2     :     0.009650  d :     0.048540
      dxz     :     0.007167
      dyz     :     0.010711
      dx2y2   :     0.010071
      dxy     :     0.010942

  4 H s       :     0.876029  s :     0.876029
      pz      :     0.004299  p :     0.012393
      px      :     0.003640
      py      :     0.004454

  5 C s       :     3.231903  s :     3.231903
      pz      :     1.037274  p :     2.935418
      px      :     0.938279
      py      :     0.959865
      dz2     :     0.010183  d :     0.048545
      dxz     :     0.007653
      dyz     :     0.009653
      dx2y2   :     0.009558
      dxy     :     0.011497

  6 H s       :     0.879573  s :     0.879573
      pz      :     0.008344  p :     0.012305
      px      :     0.001869
      py      :     0.002092

  7 C s       :     3.235149  s :     3.235149
      pz      :     1.033970  p :     2.936437
      px      :     0.993651
      py      :     0.908816
      dz2     :     0.012549  d :     0.048639
      dxz     :     0.007881
      dyz     :     0.006367
      dx2y2   :     0.010809
      dxy     :     0.011033

  8 H s       :     0.875341  s :     0.875341
      pz      :     0.001912  p :     0.012404
      px      :     0.003382
      py      :     0.007110

  9 H s       :     0.879371  s :     0.879371
      pz      :     0.008318  p :     0.012316
      px      :     0.002018
      py      :     0.001979

 10 H s       :     0.880565  s :     0.880565
      pz      :     0.008706  p :     0.012308
      px      :     0.001705
      py      :     0.001898

 11 H s       :     0.874563  s :     0.874563
      pz      :     0.002889  p :     0.012404
      px      :     0.007764
      py      :     0.001752

 12 H s       :     0.875241  s :     0.875241
      pz      :     0.001908  p :     0.012408
      px      :     0.003315
      py      :     0.007186

 13 H s       :     0.878423  s :     0.878423
      pz      :     0.007570  p :     0.012325
      px      :     0.001719
      py      :     0.003036

 14 H s       :     0.874564  s :     0.874564
      pz      :     0.003259  p :     0.012404
      px      :     0.007409
      py      :     0.001736

 15 H s       :     0.880602  s :     0.880602
      pz      :     0.008747  p :     0.012304
      px      :     0.001736
      py      :     0.001821

 16 H s       :     0.876018  s :     0.876018
      pz      :     0.003826  p :     0.012394
      px      :     0.003920
      py      :     0.004647

 17 H s       :     0.878272  s :     0.878272
      pz      :     0.007759  p :     0.012333
      px      :     0.001745
      py      :     0.002829



                     *******************************
                     * LOEWDIN POPULATION ANALYSIS *
                     *******************************

----------------------
LOEWDIN ATOMIC CHARGES
----------------------
   0 C :   -0.119494
   1 C :   -0.117168
   2 C :   -0.117170
   3 C :   -0.119175
   4 H :    0.060231
   5 C :   -0.119169
   6 H :    0.057628
   7 C :   -0.119485
   8 H :    0.062447
   9 H :    0.057654
  10 H :    0.055737
  11 H :    0.061215
  12 H :    0.062486
  13 H :    0.058506
  14 H :    0.061239
  15 H :    0.055739
  16 H :    0.060246
  17 H :    0.058533

-------------------------------
LOEWDIN REDUCED ORBITAL CHARGES
-------------------------------
  0 C s       :     2.889897  s :     2.889897
      pz      :     1.065551  p :     3.137518
      px      :     1.048773
      py      :     1.023194
      dz2     :     0.022873  d :     0.092079
      dxz     :     0.011432
      dyz     :     0.014679
      dx2y2   :     0.022203
      dxy     :     0.020892

  1 C s       :     2.888978  s :     2.888978
      pz      :     1.057883  p :     3.134251
      px      :     1.028701
      py      :     1.047667
      dz2     :     0.027883  d :     0.093940
      dxz     :     0.013115
      dyz     :     0.009798
      dx2y2   :     0.020590
      dxy     :     0.022553

  2 C s       :     2.889067  s :     2.889067
      pz      :     1.058036  p :     3.134179
      px      :     1.029561
      py      :     1.046582
      dz2     :     0.028102  d :     0.093924
      dxz     :     0.014260
      dyz     :     0.008287
      dx2y2   :     0.019598
      dxy     :     0.023677

  3 C s       :     2.890415  s :     2.890415
      pz      :     1.070951  p :     3.136941
      px      :     1.029504
      py      :     1.036485
      dz2     :     0.017017  d :     0.091820
      dxz     :     0.013610
      dyz     :     0.018995
      dx2y2   :     0.020395
      dxy     :     0.021803

  4 H s       :     0.901069  s :     0.901069
      pz      :     0.013339  p :     0.038701
      px      :     0.011619
      py      :     0.013743

  5 C s       :     2.890322  s :     2.890322
      pz      :     1.069096  p :     3.137008
      px      :     1.031284
      py      :     1.036628
      dz2     :     0.017994  d :     0.091839
      dxz     :     0.014570
      dyz     :     0.017258
      dx2y2   :     0.019363
      dxy     :     0.022654

  6 H s       :     0.903744  s :     0.903744
      pz      :     0.023987  p :     0.038628
      px      :     0.007126
      py      :     0.007515

  7 C s       :     2.889811  s :     2.889811
      pz      :     1.067920  p :     3.137588
      px      :     1.047111
      py      :     1.022556
      dz2     :     0.022148  d :     0.092086
      dxz     :     0.013773
      dyz     :     0.012754
      dx2y2   :     0.021378
      dxy     :     0.022034

  8 H s       :     0.898932  s :     0.898932
      pz      :     0.006922  p :     0.038621
      px      :     0.010921
      py      :     0.020778

  9 H s       :     0.903648  s :     0.903648
      pz      :     0.023930  p :     0.038697
      px      :     0.007538
      py      :     0.007229

 10 H s       :     0.905617  s :     0.905617
      pz      :     0.025002  p :     0.038646
      px      :     0.006547
      py      :     0.007097

 11 H s       :     0.900057  s :     0.900057
      pz      :     0.009602  p :     0.038728
      px      :     0.022532
      py      :     0.006594

 12 H s       :     0.898870  s :     0.898870
      pz      :     0.006914  p :     0.038645
      px      :     0.010755
      py      :     0.020976

 13 H s       :     0.902819  s :     0.902819
      pz      :     0.021932  p :     0.038675
      px      :     0.006682
      py      :     0.010061

 14 H s       :     0.900040  s :     0.900040
      pz      :     0.010564  p :     0.038721
      px      :     0.021601
      py      :     0.006556

 15 H s       :     0.905639  s :     0.905639
      pz      :     0.025105  p :     0.038622
      px      :     0.006619
      py      :     0.006897

 16 H s       :     0.901052  s :     0.901052
      pz      :     0.012098  p :     0.038702
      px      :     0.012349
      py      :     0.014255

 17 H s       :     0.902746  s :     0.902746
      pz      :     0.022454  p :     0.038721
      px      :     0.006747
      py      :     0.009520



                      *****************************
                      * MAYER POPULATION ANALYSIS *
                      *****************************

  NA   - Mulliken gross atomic population
  ZA   - Total nuclear charge
  QA   - Mulliken gross atomic charge
  VA   - Mayer's total valence
  BVA  - Mayer's bonded valence
  FA   - Mayer's free valence

  ATOM       NA         ZA         QA         VA         BVA        FA
  0 C      6.2203     6.0000    -0.2203     3.7897     3.7897     0.0000
  1 C      6.2253     6.0000    -0.2253     3.8184     3.8184     0.0000
  2 C      6.2254     6.0000    -0.2254     3.8184     3.8184    -0.0000
  3 C      6.2160     6.0000    -0.2160     3.7894     3.7894    -0.0000
  4 H      0.8884     1.0000     0.1116     0.9499     0.9499    -0.0000
  5 C      6.2159     6.0000    -0.2159     3.7894     3.7894     0.0000
  6 H      0.8919     1.0000     0.1081     0.9481     0.9481     0.0000
  7 C      6.2202     6.0000    -0.2202     3.7898     3.7898     0.0000
  8 H      0.8877     1.0000     0.1123     0.9511     0.9511     0.0000
  9 H      0.8917     1.0000     0.1083     0.9481     0.9481     0.0000
 10 H      0.8929     1.0000     0.1071     0.9467     0.9467     0.0000
 11 H      0.8870     1.0000     0.1130     0.9503     0.9503    -0.0000
 12 H      0.8876     1.0000     0.1124     0.9511     0.9511     0.0000
 13 H      0.8907     1.0000     0.1093     0.9486     0.9486    -0.0000
 14 H      0.8870     1.0000     0.1130     0.9503     0.9503     0.0000
 15 H      0.8929     1.0000     0.1071     0.9468     0.9468    -0.0000
 16 H      0.8884     1.0000     0.1116     0.9499     0.9499     0.0000
 17 H      0.8906     1.0000     0.1094     0.9486     0.9486     0.0000

  Mayer bond orders larger than 0.100000
B(  0-C ,  1-C ) :   0.9704 B(  0-C ,  5-C ) :   0.9439 B(  0-C ,  6-H ) :   0.9788 
B(  0-C , 11-H ) :   0.9829 B(  1-C ,  3-C ) :   0.9698 B(  1-C , 10-H ) :   0.9750 
B(  1-C , 12-H ) :   0.9791 B(  2-C ,  5-C ) :   0.9698 B(  2-C ,  7-C ) :   0.9704 
B(  2-C ,  8-H ) :   0.9791 B(  2-C , 15-H ) :   0.9750 B(  3-C ,  4-H ) :   0.9827 
B(  3-C ,  7-C ) :   0.9439 B(  3-C , 13-H ) :   0.9797 B(  5-C , 16-H ) :   0.9827 
B(  5-C , 17-H ) :   0.9796 B(  7-C ,  9-H ) :   0.9788 B(  7-C , 14-H ) :   0.9829 


-------
TIMINGS
-------

Total SCF time: 0 days 0 hours 0 min 4 sec 

Total time                  ....       4.117 sec
Sum of individual times     ....       3.919 sec  ( 95.2%)

SCF preparation             ....       0.303 sec  (  7.4%)
Fock matrix formation       ....       3.433 sec  ( 83.4%)
  Startup                   ....       0.003 sec  (  0.1% of F)
  Coulomb+Exchange Fock     ....       3.606 sec  (105.0% of F)
Diagonalization             ....       0.000 sec  (  0.0%)
Density matrix formation    ....       0.019 sec  (  0.5%)
Total Energy calculation    ....       0.009 sec  (  0.2%)
Population analysis         ....       0.013 sec  (  0.3%)
Orbital Transformation      ....       0.017 sec  (  0.4%)
Orbital Orthonormalization  ....       0.000 sec  (  0.0%)
DIIS solution               ....       0.076 sec  (  1.8%)
SOSCF solution              ....       0.047 sec  (  1.1%)
Finished LeanSCF after   4.1 sec

Maximum memory used throughout the entire LEANSCF-calculation: 10.8 MB


           ************************************************************
           *        Program running with 9 parallel MPI-processes     *
           *              working on a common directory               *
           ************************************************************

------------------------------------------------------------------------------
                                ORCA  MP2 
------------------------------------------------------------------------------

Freezing NCore=12 chemical core electrons
MP2 will be done in the AO integral direct mode
The Q1-step will be done using symmetric double matrices
Dimension of the basis                    ...  144
Memory devoted for MP2                    ... 4096 MB   
Memory needed for all in one shot         ...   24 MB
Number of MOs that can be treated together...  356      
MP2 density construction                  ... relaxed
The MP2 gradient is requested => amplitudes will be stored on disk
Total number of MOs              ...   18
Number of MOs treated per batch  ...    2 
Number of batches necessary      ...    1 
OPERATORS   0/  0 PASS   4
OPERATORS   0/  0 PASS   6
OPERATORS   0/  0 PASS   8
OPERATORS   0/  0 PASS   7
OPERATORS   0/  0 PASS   5
OPERATORS   0/  0 PASS   1
OPERATORS   0/  0 PASS   0
OPERATORS   0/  0 PASS   3
OPERATORS   0/  0 PASS   2
-----------------------------------------------
 MP2 CORRELATION ENERGY   :     -0.856339485 Eh
-----------------------------------------------


---------------------
MP2 DENSITY FORMATION
---------------------

Completing the external part of the density      ... done
Storing the unrelaxed density                    ... done

Calculating G(D)                                 ... done
Completing the Lagrangian                        ... done
Solving the Z-vector equations                   ... 
-------------------
SHARK CP-SCF DRIVER
-------------------

Dimension of the orbital basis          ...    144
Dimension of the CPSCF-problem          ...   2880
Number of operators                     ...      1
Max. number of iterations               ...    128
Convergence Tolerance                   ... 1.0e-04
Number of perturbations                 ...      1
Perturbation type                       ... REAL

----------------------------
POPLE LINEAR EQUATION SOLVER
----------------------------

  ITERATION   0:   ||err||_max =   6.2979e-02 (   0.4 sec)
  ITERATION   1:   ||err||_max =   1.2425e-02 (   0.5 sec)
  ITERATION   2:   ||err||_max =   2.5559e-03 (   0.5 sec)
  ITERATION   3:   ||err||_max =   2.7532e-04 (   0.4 sec)
  ITERATION   4:   ||err||_max =   3.2043e-05 (   0.4 sec)
                                                 ... done
Finalizing the relaxed density                   ... done
Transforming P to the AO basis                   ... done
Storing the relaxed density                      ... done

------------------------------------
ENERGY WEIGHTED DENSITY FINALIZATION
------------------------------------

Gathering the parts of the W-matrix              ...                                                      done
Forming the Z-density                            ... done
Transforming Z to the AO basis                   ... done
Calculating G(Z)                                 ... done
Finalizing the W-matrix                          ...                                                      done
Transforming W to the AO basis and storing       ... done

                *********************************************
                * UNRELAXED MP2 DENSITY POPULATION ANALYSIS *
                *********************************************

------------------------------------------------------------------------------
                           ORCA POPULATION ANALYSIS
------------------------------------------------------------------------------
Input electron density              ... cyclohexane.pmp2ur
BaseName (.gbw .S,...)              ... cyclohexane

                    ********************************
                    * MULLIKEN POPULATION ANALYSIS *
                    ********************************

-----------------------
MULLIKEN ATOMIC CHARGES
-----------------------
   0 C :   -0.222159
   1 C :   -0.227333
   2 C :   -0.227471
   3 C :   -0.217892
   4 H :    0.112530
   5 C :   -0.217767
   6 H :    0.109064
   7 C :   -0.222068
   8 H :    0.113245
   9 H :    0.109255
  10 H :    0.108144
  11 H :    0.113974
  12 H :    0.113341
  13 H :    0.110186
  14 H :    0.113973
  15 H :    0.108111
  16 H :    0.112539
  17 H :    0.110329
Sum of atomic charges:    0.0000000

--------------------------------
MULLIKEN REDUCED ORBITAL CHARGES
--------------------------------
  0 C s       :     3.231874  s :     3.231874
      pz      :     1.023437  p :     2.925436
      px      :     0.994748
      py      :     0.907252
      dz2     :     0.015965  d :     0.064850
      dxz     :     0.009767
      dyz     :     0.010767
      dx2y2   :     0.014726
      dxy     :     0.013624
  1 C s       :     3.240087  s :     3.240087
      pz      :     1.002992  p :     2.921652
      px      :     0.926701
      py      :     0.991959
      dz2     :     0.018684  d :     0.065593
      dxz     :     0.009754
      dyz     :     0.008525
      dx2y2   :     0.013675
      dxy     :     0.014956
  2 C s       :     3.240211  s :     3.240211
      pz      :     1.003839  p :     2.921672
      px      :     0.928974
      py      :     0.988859
      dz2     :     0.018814  d :     0.065589
      dxz     :     0.010340
      dyz     :     0.007748
      dx2y2   :     0.013177
      dxy     :     0.015509
  3 C s       :     3.228670  s :     3.228670
      pz      :     1.038923  p :     2.924480
      px      :     0.929395
      py      :     0.956161
      dz2     :     0.012741  d :     0.064743
      dxz     :     0.010498
      dyz     :     0.013949
      dx2y2   :     0.013289
      dxy     :     0.014267
  4 H s       :     0.872257  s :     0.872257
      pz      :     0.005208  p :     0.015214
      px      :     0.004608
      py      :     0.005398
  5 C s       :     3.228562  s :     3.228562
      pz      :     1.033420  p :     2.924455
      px      :     0.934548
      py      :     0.956486
      dz2     :     0.013289  d :     0.064749
      dxz     :     0.010920
      dyz     :     0.012944
      dx2y2   :     0.012803
      dxy     :     0.014794
  6 H s       :     0.875780  s :     0.875780
      pz      :     0.009076  p :     0.015156
      px      :     0.002933
      py      :     0.003147
  7 C s       :     3.231774  s :     3.231774
      pz      :     1.030208  p :     2.925442
      px      :     0.990079
      py      :     0.905155
      dz2     :     0.015572  d :     0.064852
      dxz     :     0.011108
      dyz     :     0.009805
      dx2y2   :     0.014225
      dxy     :     0.014142
  8 H s       :     0.871555  s :     0.871555
      pz      :     0.002939  p :     0.015200
      px      :     0.004361
      py      :     0.007900
  9 H s       :     0.875578  s :     0.875578
      pz      :     0.009049  p :     0.015168
      px      :     0.003078
      py      :     0.003040
 10 H s       :     0.876679  s :     0.876679
      pz      :     0.009434  p :     0.015177
      px      :     0.002785
      py      :     0.002959
 11 H s       :     0.870811  s :     0.870811
      pz      :     0.003869  p :     0.015215
      px      :     0.008537
      py      :     0.002809
 12 H s       :     0.871454  s :     0.871454
      pz      :     0.002936  p :     0.015204
      px      :     0.004298
      py      :     0.007971
 13 H s       :     0.874647  s :     0.874647
      pz      :     0.008328  p :     0.015167
      px      :     0.002792
      py      :     0.004047
 14 H s       :     0.870812  s :     0.870812
      pz      :     0.004219  p :     0.015215
      px      :     0.008201
      py      :     0.002795
 15 H s       :     0.876717  s :     0.876717
      pz      :     0.009473  p :     0.015172
      px      :     0.002812
      py      :     0.002887
 16 H s       :     0.872246  s :     0.872246
      pz      :     0.004760  p :     0.015215
      px      :     0.004873
      py      :     0.005582
 17 H s       :     0.874496  s :     0.874496
      pz      :     0.008511  p :     0.015175
      px      :     0.002816
      py      :     0.003849


                     *******************************
                     * LOEWDIN POPULATION ANALYSIS *
                     *******************************

----------------------
LOEWDIN ATOMIC CHARGES
----------------------
   0 C :   -0.120020
   1 C :   -0.117763
   2 C :   -0.117769
   3 C :   -0.119727
   4 H :    0.060507
   5 C :   -0.119718
   6 H :    0.057897
   7 C :   -0.120007
   8 H :    0.062741
   9 H :    0.057922
  10 H :    0.056034
  11 H :    0.061488
  12 H :    0.062779
  13 H :    0.058771
  14 H :    0.061512
  15 H :    0.056037
  16 H :    0.060522
  17 H :    0.058797

-------------------------------
LOEWDIN REDUCED ORBITAL CHARGES
-------------------------------
  0 C s       :     2.889536  s :     2.889536
      pz      :     1.059970  p :     3.119849
      px      :     1.042960
      py      :     1.016919
      dz2     :     0.026530  d :     0.110635
      dxz     :     0.015088
      dyz     :     0.018388
      dx2y2   :     0.026020
      dxy     :     0.024609
  1 C s       :     2.888632  s :     2.888632
      pz      :     1.052349  p :     3.116653
      px      :     1.022555
      py      :     1.041750
      dz2     :     0.031566  d :     0.112478
      dxz     :     0.016794
      dyz     :     0.013420
      dx2y2   :     0.024347
      dxy     :     0.026351
  2 C s       :     2.888721  s :     2.888721
      pz      :     1.052509  p :     3.116587
      px      :     1.023420
      py      :     1.040659
      dz2     :     0.031783  d :     0.112461
      dxz     :     0.017921
      dyz     :     0.011923
      dx2y2   :     0.023366
      dxy     :     0.027467
  3 C s       :     2.890052  s :     2.890052
      pz      :     1.065397  p :     3.119318
      px      :     1.023314
      py      :     1.030607
      dz2     :     0.020635  d :     0.110358
      dxz     :     0.017323
      dyz     :     0.022686
      dx2y2   :     0.024129
      dxy     :     0.025586
  4 H s       :     0.895979  s :     0.895979
      pz      :     0.014916  p :     0.043515
      px      :     0.013173
      py      :     0.015425
  5 C s       :     2.889959  s :     2.889959
      pz      :     1.063515  p :     3.119381
      px      :     1.025123
      py      :     1.030744
      dz2     :     0.021627  d :     0.110378
      dxz     :     0.018267
      dyz     :     0.020951
      dx2y2   :     0.023096
      dxy     :     0.026437
  6 H s       :     0.898630  s :     0.898630
      pz      :     0.026120  p :     0.043473
      px      :     0.008466
      py      :     0.008886
  7 C s       :     2.889450  s :     2.889450
      pz      :     1.062363  p :     3.119914
      px      :     1.041286
      py      :     1.016265
      dz2     :     0.025790  d :     0.110643
      dxz     :     0.017438
      dyz     :     0.016466
      dx2y2   :     0.025201
      dxy     :     0.025748
  8 H s       :     0.893850  s :     0.893850
      pz      :     0.008224  p :     0.043409
      px      :     0.012434
      py      :     0.022751
  9 H s       :     0.898533  s :     0.898533
      pz      :     0.026057  p :     0.043545
      px      :     0.008903
      py      :     0.008585
 10 H s       :     0.900452  s :     0.900452
      pz      :     0.027207  p :     0.043515
      px      :     0.007872
      py      :     0.008436
 11 H s       :     0.894980  s :     0.894980
      pz      :     0.011006  p :     0.043532
      px      :     0.024623
      py      :     0.007903
 12 H s       :     0.893788  s :     0.893788
      pz      :     0.008215  p :     0.043433
      px      :     0.012263
      py      :     0.022955
 13 H s       :     0.897719  s :     0.897719
      pz      :     0.023946  p :     0.043510
      px      :     0.007997
      py      :     0.011567
 14 H s       :     0.894964  s :     0.894964
      pz      :     0.012010  p :     0.043525
      px      :     0.023651
      py      :     0.007864
 15 H s       :     0.900475  s :     0.900475
      pz      :     0.027314  p :     0.043488
      px      :     0.007945
      py      :     0.008229
 16 H s       :     0.895962  s :     0.895962
      pz      :     0.013618  p :     0.043516
      px      :     0.013935
      py      :     0.015963
 17 H s       :     0.897645  s :     0.897645
      pz      :     0.024497  p :     0.043558
      px      :     0.008063
      py      :     0.010998


                      *****************************
                      * MAYER POPULATION ANALYSIS *
                      *****************************

  NA   - Mulliken gross atomic population
  ZA   - Total nuclear charge
  QA   - Mulliken gross atomic charge
  VA   - Mayer's total valence
  BVA  - Mayer's bonded valence
  FA   - Mayer's free valence

  ATOM       NA         ZA         QA         VA         BVA        FA
  0 C      6.2222     6.0000    -0.2222     3.8735     3.6060     0.2675
  1 C      6.2273     6.0000    -0.2273     3.9017     3.6339     0.2678
  2 C      6.2275     6.0000    -0.2275     3.9017     3.6338     0.2678
  3 C      6.2179     6.0000    -0.2179     3.8729     3.6055     0.2674
  4 H      0.8875     1.0000     0.1125     0.9595     0.9102     0.0492
  5 C      6.2178     6.0000    -0.2178     3.8729     3.6056     0.2674
  6 H      0.8909     1.0000     0.1091     0.9580     0.9084     0.0495
  7 C      6.2221     6.0000    -0.2221     3.8735     3.6060     0.2674
  8 H      0.8868     1.0000     0.1132     0.9606     0.9113     0.0493
  9 H      0.8907     1.0000     0.1093     0.9579     0.9084     0.0495
 10 H      0.8919     1.0000     0.1081     0.9566     0.9071     0.0495
 11 H      0.8860     1.0000     0.1140     0.9598     0.9106     0.0492
 12 H      0.8867     1.0000     0.1133     0.9606     0.9113     0.0493
 13 H      0.8898     1.0000     0.1102     0.9584     0.9089     0.0495
 14 H      0.8860     1.0000     0.1140     0.9598     0.9106     0.0492
 15 H      0.8919     1.0000     0.1081     0.9566     0.9071     0.0495
 16 H      0.8875     1.0000     0.1125     0.9595     0.9102     0.0492
 17 H      0.8897     1.0000     0.1103     0.9583     0.9089     0.0494

  Mayer bond orders larger than 0.100000
B(  0-C ,  1-C ) :   0.9176 B(  0-C ,  5-C ) :   0.8918 B(  0-C ,  6-H ) :   0.9400 
B(  0-C , 11-H ) :   0.9442 B(  1-C ,  3-C ) :   0.9168 B(  1-C , 10-H ) :   0.9364 
B(  1-C , 12-H ) :   0.9406 B(  2-C ,  5-C ) :   0.9168 B(  2-C ,  7-C ) :   0.9176 
B(  2-C ,  8-H ) :   0.9405 B(  2-C , 15-H ) :   0.9364 B(  3-C ,  4-H ) :   0.9439 
B(  3-C ,  7-C ) :   0.8918 B(  3-C , 13-H ) :   0.9408 B(  5-C , 16-H ) :   0.9439 
B(  5-C , 17-H ) :   0.9408 B(  7-C ,  9-H ) :   0.9400 B(  7-C , 14-H ) :   0.9442 



                *******************************************
                * RELAXED MP2 DENSITY POPULATION ANALYSIS *
                *******************************************

------------------------------------------------------------------------------
                           ORCA POPULATION ANALYSIS
------------------------------------------------------------------------------
Input electron density              ... cyclohexane.pmp2re
BaseName (.gbw .S,...)              ... cyclohexane

                    ********************************
                    * MULLIKEN POPULATION ANALYSIS *
                    ********************************

-----------------------
MULLIKEN ATOMIC CHARGES
-----------------------
   0 C :   -0.212128
   1 C :   -0.212587
   2 C :   -0.212686
   3 C :   -0.209194
   4 H :    0.106564
   5 C :   -0.209113
   6 H :    0.104261
   7 C :   -0.212074
   8 H :    0.106334
   9 H :    0.104414
  10 H :    0.103846
  11 H :    0.107625
  12 H :    0.106417
  13 H :    0.105087
  14 H :    0.107635
  15 H :    0.103815
  16 H :    0.106582
  17 H :    0.105204
Sum of atomic charges:    0.0000000

--------------------------------
MULLIKEN REDUCED ORBITAL CHARGES
--------------------------------
  0 C s       :     3.208917  s :     3.208917
      pz      :     1.023562  p :     2.944303
      px      :     0.999035
      py      :     0.921707
      dz2     :     0.014375  d :     0.058908
      dxz     :     0.008940
      dyz     :     0.010058
      dx2y2   :     0.013743
      dxy     :     0.011791
  1 C s       :     3.214478  s :     3.214478
      pz      :     1.007495  p :     2.938427
      px      :     0.939620
      py      :     0.991312
      dz2     :     0.017057  d :     0.059682
      dxz     :     0.009000
      dyz     :     0.007728
      dx2y2   :     0.012220
      dxy     :     0.013678
  2 C s       :     3.214602  s :     3.214602
      pz      :     1.008220  p :     2.938406
      px      :     0.941483
      py      :     0.988703
      dz2     :     0.017174  d :     0.059678
      dxz     :     0.009390
      dyz     :     0.007168
      dx2y2   :     0.011877
      dxy     :     0.014070
  3 C s       :     3.206960  s :     3.206960
      pz      :     1.035995  p :     2.943438
      px      :     0.940182
      py      :     0.967261
      dz2     :     0.011380  d :     0.058796
      dxz     :     0.009683
      dyz     :     0.012989
      dx2y2   :     0.011684
      dxy     :     0.013061
  4 H s       :     0.878831  s :     0.878831
      pz      :     0.004970  p :     0.014606
      px      :     0.004494
      py      :     0.005142
  5 C s       :     3.206846  s :     3.206846
      pz      :     1.031195  p :     2.943465
      px      :     0.944869
      py      :     0.967400
      dz2     :     0.011952  d :     0.058802
      dxz     :     0.009885
      dyz     :     0.012143
      dx2y2   :     0.011312
      dxy     :     0.013510
  6 H s       :     0.881170  s :     0.881170
      pz      :     0.008072  p :     0.014570
      px      :     0.003186
      py      :     0.003312
  7 C s       :     3.208813  s :     3.208813
      pz      :     1.029362  p :     2.944351
      px      :     0.995202
      py      :     0.919788
      dz2     :     0.013946  d :     0.058909
      dxz     :     0.010138
      dyz     :     0.009321
      dx2y2   :     0.013350
      dxy     :     0.012155
  8 H s       :     0.879087  s :     0.879087
      pz      :     0.003143  p :     0.014579
      px      :     0.004290
      py      :     0.007147
  9 H s       :     0.881004  s :     0.881004
      pz      :     0.008048  p :     0.014581
      px      :     0.003306
      py      :     0.003227
 10 H s       :     0.881561  s :     0.881561
      pz      :     0.008377  p :     0.014593
      px      :     0.003023
      py      :     0.003193
 11 H s       :     0.877768  s :     0.877768
      pz      :     0.003899  p :     0.014607
      px      :     0.007671
      py      :     0.003037
 12 H s       :     0.879000  s :     0.879000
      pz      :     0.003141  p :     0.014583
      px      :     0.004240
      py      :     0.007202
 13 H s       :     0.880336  s :     0.880336
      pz      :     0.007463  p :     0.014577
      px      :     0.003044
      py      :     0.004070
 14 H s       :     0.877757  s :     0.877757
      pz      :     0.004176  p :     0.014607
      px      :     0.007404
      py      :     0.003027
 15 H s       :     0.881598  s :     0.881598
      pz      :     0.008408  p :     0.014587
      px      :     0.003042
      py      :     0.003137
 16 H s       :     0.878811  s :     0.878811
      pz      :     0.004613  p :     0.014607
      px      :     0.004705
      py      :     0.005290
 17 H s       :     0.880211  s :     0.880211
      pz      :     0.007612  p :     0.014585
      px      :     0.003063
      py      :     0.003911


                     *******************************
                     * LOEWDIN POPULATION ANALYSIS *
                     *******************************

----------------------
LOEWDIN ATOMIC CHARGES
----------------------
   0 C :   -0.129757
   1 C :   -0.126649
   2 C :   -0.126638
   3 C :   -0.129576
   4 H :    0.065217
   5 C :   -0.129581
   6 H :    0.062685
   7 C :   -0.129757
   8 H :    0.067445
   9 H :    0.062687
  10 H :    0.060874
  11 H :    0.066182
  12 H :    0.067474
  13 H :    0.063529
  14 H :    0.066211
  15 H :    0.060880
  16 H :    0.065236
  17 H :    0.063537

-------------------------------
LOEWDIN REDUCED ORBITAL CHARGES
-------------------------------
  0 C s       :     2.889989  s :     2.889989
      pz      :     1.066866  p :     3.135174
      px      :     1.047878
      py      :     1.020430
      dz2     :     0.024927  d :     0.104594
      dxz     :     0.014203
      dyz     :     0.017663
      dx2y2   :     0.025025
      dxy     :     0.022776
  1 C s       :     2.888869  s :     2.888869
      pz      :     1.058864  p :     3.131363
      px      :     1.026528
      py      :     1.045971
      dz2     :     0.029895  d :     0.106417
      dxz     :     0.016002
      dyz     :     0.012605
      dx2y2   :     0.022857
      dxy     :     0.025058
  2 C s       :     2.888956  s :     2.888956
[...]
----------------------------------------------------------------------------
  7:    207.71   0.000003    0.02  0.000005  ( 0.000830  0.002062 -0.000038)
  8:    312.87   0.000001    0.00  0.000001  (-0.000307 -0.000157  0.000730)
  9:    457.13   0.000043    0.22  0.000029  ( 0.000333 -0.000100  0.005389)
 10:    461.26   0.000000    0.00  0.000000  ( 0.000074 -0.000076  0.000425)
 11:    550.75   0.000171    0.86  0.000097  ( 0.004745  0.008627  0.000059)
 12:    795.86   0.000205    1.04  0.000080  ( 0.007900 -0.004141 -0.000961)
 13:    799.37   0.000298    1.51  0.000116  (-0.000894  0.000544 -0.010736)
 14:    834.21   0.000011    0.05  0.000004  (-0.000068  0.000033 -0.002016)
 15:    898.16   0.000001    0.00  0.000000  (-0.000447  0.000203  0.000092)
 16:    899.75   0.000216    1.09  0.000075  (-0.005524  0.006650  0.000280)
 17:    900.52   0.000279    1.41  0.000097  ( 0.006889  0.007008 -0.000077)
 18:    993.46   0.000000    0.00  0.000000  (-0.000087 -0.000259 -0.000206)
 19:   1031.04   0.000220    1.11  0.000066  ( 0.003866  0.007177  0.000030)
 20:   1069.16   0.000000    0.00  0.000000  ( 0.000140  0.000144 -0.000050)
 21:   1103.89   0.000054    0.27  0.000015  ( 0.000010  0.000256 -0.003897)
 22:   1137.63   0.000004    0.02  0.000001  ( 0.000988 -0.000041 -0.000059)
 23:   1170.25   0.000006    0.03  0.000002  (-0.001246  0.000250  0.000054)
 24:   1190.01   0.000361    1.82  0.000095  ( 0.004539  0.008602 -0.000030)
 25:   1202.00   0.000030    0.15  0.000008  ( 0.002520 -0.001193 -0.000112)
 26:   1285.65   0.000000    0.00  0.000000  (-0.000093 -0.000241  0.000166)
 27:   1304.04   0.000000    0.00  0.000000  ( 0.000153  0.000217  0.000019)
 28:   1339.09   0.000029    0.14  0.000007  ( 0.000400  0.000274  0.002535)
 29:   1345.12   0.000293    1.48  0.000068  ( 0.003856  0.007285 -0.000024)
 30:   1369.67   0.000000    0.00  0.000000  (-0.000158 -0.000146 -0.000161)
 31:   1405.49   0.000046    0.23  0.000010  (-0.000282 -0.000545  0.003124)
 32:   1410.48   0.000568    2.87  0.000126  ( 0.005653  0.009674  0.000139)
 33:   1413.57   0.000118    0.60  0.000026  ( 0.003707 -0.003509 -0.000193)
 34:   1423.49   0.000004    0.02  0.000001  ( 0.000871 -0.000261  0.000042)
 35:   1426.98   0.000542    2.74  0.000119  ( 0.009699 -0.004931 -0.000394)
 36:   1532.44   0.000000    0.00  0.000000  (-0.000085  0.000007 -0.000025)
 37:   1535.15   0.000088    0.44  0.000018  ( 0.002146  0.003641  0.000003)
 38:   1543.67   0.000275    1.39  0.000056  (-0.003548 -0.006553  0.000023)
 39:   1556.18   0.000469    2.37  0.000094  (-0.008513  0.004651  0.000213)
 40:   1560.54   0.001731    8.75  0.000346  ( 0.000458 -0.000320  0.018597)
 41:   1573.70   0.000001    0.00  0.000000  ( 0.000107 -0.000044 -0.000331)
 42:   3118.59   0.007867   39.76  0.000787  (-0.013359 -0.024657  0.000870)
 43:   3119.98   0.000013    0.06  0.000001  (-0.000298 -0.000339 -0.001039)
 44:   3122.60   0.004085   20.64  0.000408  (-0.010242 -0.017417  0.000172)
 45:   3129.31   0.008444   42.67  0.000842  (-0.005630  0.002362 -0.028368)
 46:   3131.37   0.013275   67.09  0.001323  (-0.031381  0.017676  0.005070)
 47:   3134.29   0.000036    0.18  0.000004  (-0.000351  0.000194  0.001843)
 48:   3165.71   0.006906   34.90  0.000681  ( 0.012559  0.022869  0.000162)
 49:   3168.04   0.000002    0.01  0.000000  (-0.000047 -0.000464 -0.000030)
 50:   3178.39   0.000022    0.11  0.000002  ( 0.000026 -0.000526 -0.001366)
 51:   3180.21   0.006369   32.19  0.000625  ( 0.011597  0.022137 -0.000656)
 52:   3187.66   0.007781   39.32  0.000762  (-0.024318  0.012834  0.002385)
 53:   3196.65   0.020958  105.91  0.002046  ( 0.002275 -0.000864  0.045167)

* The epsilon (eps) is given for a Dirac delta lineshape.
** The dipole moment derivative (T) already includes vibrational overlap.

The first frequency considered to be a vibration is 7
The total number of vibrations considered is 47


--------------------------
THERMOCHEMISTRY AT 298.15K
--------------------------

Temperature         ...   298.15 K
Pressure            ...     1.00 atm
Total Mass          ...    84.16 AMU
Quasi RRHO          ...     True
Cut-Off Frequency   ...     1.00 cm^-1

Throughout the following assumptions are being made:
  (1) The electronic state is orbitally nondegenerate
  (2) There are no thermally accessible electronically excited states
  (3) Hindered rotations indicated by low frequency modes are not
      treated as such but are treated as vibrations and this may
      cause some error
  (4) All equations used are the standard statistical mechanics
      equations for an ideal gas
  (5) All vibrations are strictly harmonic

freq.     207.71  E(vib)   ...       0.34 
freq.     312.87  E(vib)   ...       0.25 
freq.     457.13  E(vib)   ...       0.16 
freq.     461.26  E(vib)   ...       0.16 
freq.     550.75  E(vib)   ...       0.12 
freq.     795.86  E(vib)   ...       0.05 
freq.     799.37  E(vib)   ...       0.05 
freq.     834.21  E(vib)   ...       0.04 
freq.     898.16  E(vib)   ...       0.03 
freq.     899.75  E(vib)   ...       0.03 
freq.     900.52  E(vib)   ...       0.03 
freq.     993.46  E(vib)   ...       0.02 
freq.    1031.04  E(vib)   ...       0.02 
freq.    1069.16  E(vib)   ...       0.02 
freq.    1103.89  E(vib)   ...       0.02 
freq.    1137.63  E(vib)   ...       0.01 
freq.    1170.25  E(vib)   ...       0.01 
freq.    1190.01  E(vib)   ...       0.01 
freq.    1202.00  E(vib)   ...       0.01 
freq.    1285.65  E(vib)   ...       0.01 
freq.    1304.04  E(vib)   ...       0.01 
freq.    1339.09  E(vib)   ...       0.01 
freq.    1345.12  E(vib)   ...       0.01 
freq.    1369.67  E(vib)   ...       0.01 
freq.    1405.49  E(vib)   ...       0.00 
freq.    1410.48  E(vib)   ...       0.00 
freq.    1413.57  E(vib)   ...       0.00 
freq.    1423.49  E(vib)   ...       0.00 
freq.    1426.98  E(vib)   ...       0.00 
freq.    1532.44  E(vib)   ...       0.00 
freq.    1535.15  E(vib)   ...       0.00 
freq.    1543.67  E(vib)   ...       0.00 
freq.    1556.18  E(vib)   ...       0.00 
freq.    1560.54  E(vib)   ...       0.00 
freq.    1573.70  E(vib)   ...       0.00 
freq.    3118.59  E(vib)   ...       0.00 
freq.    3119.98  E(vib)   ...       0.00 
freq.    3122.60  E(vib)   ...       0.00 
freq.    3129.31  E(vib)   ...       0.00 
freq.    3131.37  E(vib)   ...       0.00 
freq.    3134.29  E(vib)   ...       0.00 
freq.    3165.71  E(vib)   ...       0.00 
freq.    3168.04  E(vib)   ...       0.00 
freq.    3178.39  E(vib)   ...       0.00 
freq.    3180.21  E(vib)   ...       0.00 
freq.    3187.66  E(vib)   ...       0.00 
freq.    3196.65  E(vib)   ...       0.00 

------------
INNER ENERGY
------------

The inner energy is: U= E(el) + E(ZPE) + E(vib) + E(rot) + E(trans)
    E(el)   - is the total energy from the electronic structure calculation
              = E(kin-el) + E(nuc-el) + E(el-el) + E(nuc-nuc)
    E(ZPE)  - the the zero temperature vibrational energy from the frequency calculation
    E(vib)  - the the finite temperature correction to E(ZPE) due to population
              of excited vibrational states
    E(rot)  - is the rotational thermal energy
    E(trans)- is the translational thermal energy

Summary of contributions to the inner energy U:
Electronic energy                ...   -235.06949189 Eh
Zero point energy                ...      0.17512975 Eh     109.90 kcal/mol
Thermal vibrational correction   ...      0.00235072 Eh       1.48 kcal/mol
Thermal rotational correction    ...      0.00141627 Eh       0.89 kcal/mol
Thermal translational correction ...      0.00141627 Eh       0.89 kcal/mol
-----------------------------------------------------------------------
Total thermal energy                   -234.88917888 Eh


Summary of corrections to the electronic energy:
(perhaps to be used in another calculation)
Total thermal correction                  0.00518326 Eh       3.25 kcal/mol
Non-thermal (ZPE) correction              0.17512975 Eh     109.90 kcal/mol
-----------------------------------------------------------------------
Total correction                          0.18031301 Eh     113.15 kcal/mol


--------
ENTHALPY
--------

The enthalpy is H = U + kB*T
                kB is Boltzmann's constant
Total thermal energy              ...   -234.88917888 Eh 
Thermal Enthalpy correction       ...      0.00094421 Eh       0.59 kcal/mol
-----------------------------------------------------------------------
Total Enthalpy                    ...   -234.88823467 Eh


Note: Only C1 symmetry has been detected, increase convergence thresholds 
      if your molecule has a higher symmetry. Symmetry factor of 1.0 is   
      used for the rotational entropy correction. 
 

Note: Rotational entropy computed according to Herzberg 
Infrared and Raman Spectra, Chapter V,1, Van Nostrand Reinhold, 1945 
Point Group:  C1, Symmetry Number:   1  
Rotational constants in cm-1:     0.145032     0.140654     0.084265 

Vibrational entropy computed according to the QRRHO of S. Grimme
Chem.Eur.J. 2012 18 9955 using a reference frequency of 100.0 cm-1


-------
ENTROPY
-------

The entropy contributions are T*S = T*(S(el)+S(vib)+S(rot)+S(trans))
     S(el)   - electronic entropy
     S(vib)  - vibrational entropy
     S(rot)  - rotational entropy
     S(trans)- translational entropy
The entropies will be listed as multiplied by the temperature to get
units of energy

Electronic entropy                ...      0.00000000 Eh      0.00 kcal/mol
Vibrational entropy               ...      0.00345883 Eh      2.17 kcal/mol
Rotational entropy                ...      0.01251616 Eh      7.85 kcal/mol
Translational entropy             ...      0.01862704 Eh     11.69 kcal/mol
-----------------------------------------------------------------------
Final entropy term                ...      0.03460202 Eh     21.71 kcal/mol

In case the symmetry of your molecule has not been determined correctly
or in case you have a reason to use a different symmetry number we print 
out the resulting rotational entropy values for sn=1,12:

 non-linear molecules -----------------------------------
|  sn= 1 | S(rot)=       0.01251616 Eh      7.85 kcal/mol|
|  sn= 2 | S(rot)=       0.01186170 Eh      7.44 kcal/mol|
|  sn= 3 | S(rot)=       0.01147887 Eh      7.20 kcal/mol|
|  sn= 4 | S(rot)=       0.01120724 Eh      7.03 kcal/mol|
|  sn= 5 | S(rot)=       0.01099655 Eh      6.90 kcal/mol|
|  sn= 6 | S(rot)=       0.01082441 Eh      6.79 kcal/mol|
|  sn= 7 | S(rot)=       0.01067886 Eh      6.70 kcal/mol|
|  sn= 8 | S(rot)=       0.01055279 Eh      6.62 kcal/mol|
|  sn= 9 | S(rot)=       0.01044158 Eh      6.55 kcal/mol|
|  sn=10 | S(rot)=       0.01034210 Eh      6.49 kcal/mol|
|  sn=11 | S(rot)=       0.01025211 Eh      6.43 kcal/mol|
|  sn=12 | S(rot)=       0.01016995 Eh      6.38 kcal/mol|
 linear molecules ---------------------------------------
|  Dinfh | S(rot)=       0.00766151 Eh      4.81 kcal/mol|
|  Cinfv | S(rot)=       0.00831596 Eh      5.22 kcal/mol|
 --------------------------------------------------------


-------------------
GIBBS FREE ENERGY
-------------------

The Gibbs free energy is G = H - T*S

Total enthalpy                    ...   -234.88823467 Eh 
Total entropy correction          ...     -0.03460202 Eh    -21.71 kcal/mol
-----------------------------------------------------------------------
Final Gibbs free energy         ...   -234.92283669 Eh

For completeness - the Gibbs free energy minus the electronic energy
G-E(el)                           ...      0.14665520 Eh     92.03 kcal/mol





--------------------------------------------------------------------------------
                   Intrinsic Reaction Coordinate Calculation
--------------------------------------------------------------------------------

System:
Nr. of atoms                        .... 18
Algorithm: SD (steepest descent step) plus correction
Settings:
Max. no of cycles        MaxIter    .... 20
Direction                           .... Forward and backward
Initial displacement Hessian type   .... Read
Hessian Filename                    .... cyclohexane.hess
Following Hessian mode              .... 0
Initial displacement type           .... Energy
  Initial displacement energy change.... 2.000 mEh
Coordinate system following type    .... Cartesian
Length of steepest descent step     .... 0.150 bohr
Do parabolic fit 
  if SD step is uphill              .... YES
Do Correction to SD step            .... YES
Scaling for length of correction
  compared to SD step               .... 0.333
Do parabolic fit to SD correction   .... YES
Only interpolate for parabolic fit  .... YES
Do update to length of
  SD step and correction            .... YES
Convergence Tolerances:
  Max. Gradient            TolMAXG  ....  2.0000e-03 Eh/bohr
  RMS Gradient             TolRMSG  ....  5.0000e-04 Eh/bohr
Storing full IRC trajectory in      .... cyclohexane_IRC_Full_trj.xyz
Storing forward trajectory in       .... cyclohexane_IRC_F_trj.xyz
Storing backward trajectory in      .... cyclohexane_IRC_B_trj.xyz


 ...good, the file cyclohexane.hess exists
Reading the hessian file           ...... done
Determining length of initial displacement:
  Requested energy change (quadratic behavior): 2.000 mEh
  Resulting scaling factor for initial displacement along normalized TS mode: 1.9859

         *************************************************************
         *                          FORWARD IRC                      *
         *************************************************************

Iteration    E(Eh)      dE(kcal/mol)  max(|G|)   RMS(G) 
Convergence thresholds                0.002000  0.000500            
    0      -235.065322    2.616451    0.018666  0.008249
    1      -235.069404    0.055392    0.006403  0.002909
    2      -235.070698   -0.756570    0.001655  0.000921
    3      -235.070810   -0.827144    0.001470  0.000800
    4      -235.070854   -0.854451    0.001211  0.000566
    5      -235.070906   -0.887505    0.001004  0.000432

                      ***********************HURRAY********************
                      ***            THE IRC HAS CONVERGED          ***
                      *************************************************


         *************************************************************
         *                          BACKWARD IRC                     *
         *************************************************************

Iteration    E(Eh)      dE(kcal/mol)  max(|G|)   RMS(G) 
Convergence thresholds                0.002000  0.000500            
    0      -235.065251    2.661280    0.018454  0.008237
    1      -235.069322    0.106855    0.006533  0.002905
    2      -235.070613   -0.703739    0.001713  0.000920
    3      -235.070726   -0.774136    0.001640  0.000799
    4      -235.070769   -0.801503    0.001164  0.000566
    5      -235.070822   -0.834724    0.000902  0.000432

                      ***********************HURRAY********************
                      ***            THE IRC HAS CONVERGED          ***
                      *************************************************


---------------------------------------------------------------
                       IRC PATH SUMMARY              
---------------------------------------------------------------
All gradients are in Eh/Bohr.

Step        E(Eh)      dE(kcal/mol)  max(|G|)   RMS(G) 
   1      -235.070822   -0.834724    0.000902  0.000432
   2      -235.070769   -0.801503    0.001164  0.000566
   3      -235.070726   -0.774136    0.001640  0.000799
   4      -235.070613   -0.703739    0.001713  0.000920
   5      -235.069322    0.106855    0.006533  0.002905
   6      -235.065251    2.661280    0.018454  0.008237
   7      -235.069492    0.000000    0.000154  0.000054 <= TS
   8      -235.065322    2.616451    0.018666  0.008249
   9      -235.069404    0.055392    0.006403  0.002909
  10      -235.070698   -0.756570    0.001655  0.000921
  11      -235.070810   -0.827144    0.001470  0.000800
  12      -235.070854   -0.854451    0.001211  0.000566
  13      -235.070906   -0.887505    0.001004  0.000432

--------------------------------
SUGGESTED CITATIONS FOR THIS RUN
--------------------------------

Below you find a list of papers that are relevant to this ORCA run
We neither can nor want to force you to cite these papers, but we appreciate if you do
You receive ORCA, which is the product of decades of hard work by many enthusiastic individuals, for free
The only thing we kindly ask in return is that you cite our papers,
We deeply appreciate it, if you show your appreciation for ORCA by not just citing the generic ORCA reference.

Please note that relegating all ORCA citations to the supporting information does *not* help us.
SI sections are not indexed - citations you put there will not count into any citation statistics
But we need these citations in order to attract the funding resources that allow us to do what we are doing

Therefore, if you are a happy ORCA user, please consider citing a few of the papers listed below in the main body of your paper

In addition to the list printed below, the program has created the file cyclohexane.bibtex that contains the list in bibtex format
You can import this file easily into all common literature databanks and citation aid programs


List of essential papers. We consider these as the minimum necessary citations

  1. Neese, F.
     Software update: the ORCA program system, version 6.0
     WIRES Comput. Molec. Sci. 2025 15(1), e70019
     doi.org/10.1002/wcms.7019

List of papers to cite with high priority. The work reported in these papers was absolutely
necessary for this run to complete.
Our perspective: the developers of density functionals and basis sets usually get cited in chemistry papers
Good! But without the algorithms to do something with them, the functionals or basis sets would not do anything.
Hence, in our opinion, the algorithm design and method developments papers are equally worthy of getting cited

  1. Neese, F.
     The SHARK Integral Generation and Digestion System
     J. Comp. Chem. 2022 44(3), 381
     doi.org/10.1002/jcc.26942

List of suggested additional citations. These are papers that are important in the 'surrounding' of 
of this run, or papers that preceded the highly important papers. If you like your results we are grateful for a citation.

  1. Neese, F.
     The ORCA program system
     WIRES Comput. Molec. Sci. 2012 2(1), 73-78
     doi.org/10.1002/wcms.81
  2. Neese, F.
     Software update: the ORCA program system, version 4.0
     WIRES Comput. Molec. Sci. 2018 8(1), 1-6
     doi.org/10.1002/wcms.1327
  3. Neese, F.; Wennmohs, F.; Becker, U.; Riplinger, C.
     The ORCA quantum chemistry program package
     J. Chem. Phys. 2020 152(22), 224108
     doi.org/10.1063/5.0004608
  4. Neese, F.
     Software update: The ORCA program system—Version 5.0
     WIRES Comput. Molec. Sci. 2022 12(1), e1606
     doi.org/10.1002/wcms.1606

List of optional additional citations

  1. Neese, F.
     Approximate second-order SCF convergence for spin unrestricted wavefunctions
     Chem. Phys. Lett. 2000 325(1-3), 93-98
     doi.org/10.1016/s0009-2614(00)00662-x

Timings for individual modules:

Sum of individual times          ...     2392.020 sec (=  39.867 min)
Startup calculation              ...      105.353 sec (=   1.756 min)   4.4 %
SCF iterations                   ...      349.344 sec (=   5.822 min)  14.6 %
Property calculations            ...        1.065 sec (=   0.018 min)   0.0 %
MP2 module                       ...     1008.858 sec (=  16.814 min)  42.2 %
Geometry relaxation              ...        0.024 sec (=   0.000 min)   0.0 %
Numerical frequency calculation  ...      927.377 sec (=  15.456 min)  38.8 %
                             ****ORCA TERMINATED NORMALLY****
TOTAL RUN TIME: 0 days 0 hours 39 minutes 47 seconds 837 msec
