
                                 *****************
                                 * O   R   C   A *
                                 *****************

                                            #,                                       
                                            ###                                      
                                            ####                                     
                                            #####                                    
                                            ######                                   
                                           ########,                                 
                                     ,,################,,,,,                         
                               ,,#################################,,                 
                          ,,##########################################,,             
                       ,#########################################, ''#####,          
                    ,#############################################,,   '####,        
                  ,##################################################,,,,####,       
                ,###########''''           ''''###############################       
              ,#####''   ,,,,##########,,,,          '''####'''          '####       
            ,##' ,,,,###########################,,,                        '##       
           ' ,,###''''                  '''############,,,                           
         ,,##''                                '''############,,,,        ,,,,,,###''
      ,#''                                            '''#######################'''  
     '                                                          ''''####''''         
             ,#######,   #######,   ,#######,      ##                                
            ,#'     '#,  ##    ##  ,#'     '#,    #''#        ,####,    ,#,          
            ##       ##  ##   ,#'  ##            #'  '#       #'       ,# #          
            ##       ##  #######   ##           ,######,      #####,      #          
            '#,     ,#'  ##    ##  '#,     ,#' ,#      #,     #,   #      #          
             '#######'   ##     ##  '#######'  #'      '#     '####' #    #          



                #########################################################
                #                        -***-                          #
                #          Department of theory and spectroscopy        #
                #                                                       #
                #                      Frank Neese                      #
                #                                                       #
                #     Directorship, Architecture, Infrastructure        #
                #                    SHARK, DRIVERS                     #
                #        Core code/Algorithms in most modules           #
                #                                                       #
                #        Max Planck Institute fuer Kohlenforschung      #
                #                Kaiser Wilhelm Platz 1                 #
                #                 D-45470 Muelheim/Ruhr                 #
                #                      Germany                          #
                #                                                       #
                #                  All rights reserved                  #
                #                        -***-                          #
                #########################################################


                         Program Version 6.1.0  -  RELEASE   -
                                (GIT: $679e74b$)
                          ($2025-06-10 18:02:51 +0200$)


 With contributions from (in alphabetic order):
[Max-Planck-Institut fuer Kohlenforschung]                               
  Daniel Aravena         : Magnetic Suceptibility                        
  Michael Atanasov       : Ab Initio Ligand Field Theory (pilot matlab implementation)
  Alexander A. Auer      : GIAO ZORA, VPT2 properties, NMR spectrum      
  Ute Becker             : All parallelization in ORCA, NUMFREQ, NUMCALC 
  Giovanni Bistoni       : ED, misc. LED, open-shell LED, HFLD           
  Dmytro Bykov           : pre 5.0 version of the SCF Hessian            
  Marcos Casanova-Páez   : Triplet and SCS-CIS(D). UHF-(DLPNO)-IP/EA/STEOM-CCSD. UHF-CVS-IP/STEOM-CCSD   
  Vijay G. Chilkuri      : MRCI spin determinant printing, contributions to CSF-ICE 
  Pauline Colinet        : FMM embedding                                 
  Dipayan Datta          : RHF DLPNO-CCSD density                        
  Achintya Kumar Dutta   : EOM-CC, STEOM-CC                              
  Nicolas Foglia         : Exact transition moments, OPA infrastructure, MCD improvements    
  Dmitry Ganyushin       : Spin-Orbit,Spin-Spin,Magnetic field MRCI      
  Miquel Garcia-Rates    : C-PCM and meta-GGA Hessian, CCSD/C-PCM, Gaussian charge scheme 
  Tiago L. C. Gouveia    : GS-ROHF, GS-ROCIS                             
  Yang Guo               : DLPNO-NEVPT2, F12-NEVPT2, CIM, IAO-localization        
  Andreas Hansen         : Spin unrestricted coupled pair/coupled cluster methods 
  Ingolf Harden          : AUTO-CI MPn and infrastructure                
  Benjamin Helmich-Paris : MC-RPA, TRAH-(SCF,CASSCF), AVAS, COSX integrals, SCF dyn. polar., MC-PDFT, srDFT 
  Lee Huntington         : MR-EOM, pCC                                   
  Robert Izsak           : Overlap fitted RIJCOSX, COSX-SCS-MP3, EOM     
  Riya Kayal             : Wick's Theorem for AUTO-CI, AUTO-CI UHF-CCSDT 
  Emily Kempfer          : AUTO-CI RHF CISDT and CCSDT, approximate NEVPT4
  Christian Kollmar      : KDIIS, OOCD, Brueckner-CCSD(T), CCSD density, CASPT2, CASPT2-K, improved NEVPT2 
  Axel Koslowski         : Symmetry handling                             
  Simone Kossmann        : meta-GGA functionals, TD-DFT gradient, OOMP2, (MP2 Hessian; deprecated post 5.0) 
  Lucas Lang             : DCDCAS, Hyperfine gauge corrections, ICE-SOC+SSC
  Marvin Lechner         : AUTO-CI (C++ implementation), FIC-MRCC        
  Spencer Leger          : CASSCF response                               
  Dagmar Lenk            : GEPOL surface, SMD, ORCA-2-JSON               
  Dimitrios Liakos       : Extrapolation schemes; Compound Job, Property file
  Dimitrios Manganas     : Further ROCIS development; embedding schemes. LFT, Crystal Embedding 
  Dimitrios Pantazis     : SARC Basis sets                               
  Anastasios Papadopoulos: AUTO-CI, single reference methods and gradients 
  Taras Petrenko         : pre 6.0 DFT Hessian and TD-DFT gradient,  ECA, NRVS 
  Petra Pikulova         : Analytic Raman intensities                    
  Peter Pinski           : DLPNO-MP2, DLPNO-MP2 Gradient                 
  Shashank Vittal Rao    : ES-AILFT, MagRelax                            
  Christoph Reimann      : Effective Core Potentials                     
  Marius Retegan         : Local ZFS, SOC                                
  Christoph Riplinger    : Optimizer, TS searches, QM/MM, DLPNO-CCSD(T), (RO)-DLPNO pert. Triples 
  Michael Roemelt        : Original ROCIS implementation, recursive CI coupling coefficients
  Masaaki Saitow         : Open-shell DLPNO-CCSD energy and density      
  Barbara Sandhoefer     : DKH picture change effects                    
  Yorick L. A. Schmerwitz: GMF and freeze-and-release deltaSCF, NEB S-IDPP initial path                    
  Kantharuban Sivalingam : CASSCF convergence/infrastructure, NEVPT2, NEVPT3, NEVPT4(SD), FIC-MRCI and CEPA variants
  Bernardo de Souza      : ESD, SOC TD-DFT                               
  Georgi L. Stoychev     : AutoAux, RI-MP2 NMR, DLPNO-MP2 response, X2C  
  Van Anh Tran           : RI-MP2 g-tensors                              
  Willem Van den Heuvel  : Paramagnetic NMR                              
  Zikuan Wang            : NOTCH, Electric field optimization            
  Frank Wennmohs         : Technical directorship and infrastructure     
  Hang Xu                : AUTO-CI-Response properties                   
                                                                         
[FACCTs GmbH]                                                            
  Markus Bursch, Nicolas Foglia, Miquel Garcia-Rates, Ingolf Harden, Hagen Neugebauer, Anastasios Papadopoulos, 
  Christoph Riplinger, Bernardo de Souza, Georgi L. Stoychev                                                    
                                                                 
  APM, various basis sets, CI-OPT, improved COSX, DLPNO-Multilevel,           
  DOCKER, DRACO, updates on ESD, Fragmentator, GOAT, IRC, LR-CPCM, L-BFGS, MBIS, meta-GGA TD-DFT gradient, ML-optimized integration grids, 
  MM, NACMEs, nearIR, NEB, NEB-TS, NL-DFT gradient (VV10), 2- and 3-layer-ONIOM, interface openCOSMO-RS, QMMM,   
  Crystal-QMMM, RESP, rigid body optimization, SF, symmetry and pop. for TD-DFT, various functionals, SOLVATOR                                   
                                                                         
[Other institutions]                                                     
  V. Asgeirsson          : NEB                                           
  Christoph Bannwarth    : sTDA-DFT, sTD-DFT, PBEh-3c, B97-3c, D3        
  Giovanni Bistoni       : ETS/NOCV, ADLD/ADEX, COVALED                  
  Martin Brehm           : Molecular dynamics                            
  Ronald Cardenas        : ETS/NOCV                                      
  Martina Colucci        : COVALED                                       
  Sebastian Ehlert       : rSCAN, r2SCAN, r2SCAN-3c, D4, dhf basis sets  
  Marvin Friede          : D4 for Fr, Ra, Ac-Lr                          
  Lars Goerigk           : TD-DFT with DH, B97 family of functionals     
  Stefan Grimme          : VdW corrections, initial TS optimization, DFT functionals, gCP, sTDA/sTD-DF 
  Waldemar Hujo          : DFT-NL                                        
  H. Jonsson             : NEB                                           
  Holger Kruse           : gCP                                           
  Marcel Mueller         : wB97X-3c, vDZP basis set                      
  Hagen Neugebauer       : wr2SCAN, Native XTB                           
  Gianluca Regni         : ADLD/ADEX                                     
  Tobias Risthaus        : pre 6.0 range-separated hybrid DFT and stability analysis
  Lukas Wittmann         : regularized MP2, r2SCAN double-hybrids, wr2SCAN        
                                                                         
We gratefully acknowledge several colleagues who have allowed us to      
interface, adapt or use parts of their codes:                            
  Ed Valeev, F. Pavosevic, A. Kumar             : LibInt (2-el integral package), F12 methods 
  Garnet Chan, S. Sharma, J. Yang, R. Olivares  : DMRG                   
  Ulf Ekstrom                                   : XCFun DFT Library      
  Mihaly Kallay                                 : mrcc  (arbitrary order and MRCC methods)
  Frank Weinhold                                : gennbo (NPA and NBO analysis)           
  Simon Mueller                                 : openCOSMO-RS                            
  Christopher J. Cramer and Donald G. Truhlar   : smd solvation model                     
  S Lehtola, MJT Oliveira, MAL Marques          : LibXC Library                           
  Liviu Ungur et al                             : ANISO software                          


 Your calculation uses the libint2 library for the computation of 2-el integrals
 For citations please refer to: http://libint.valeyev.net

 Your ORCA version has been built with support for libXC version: 7.0.0
 For citations please refer to: https://libxc.gitlab.io

 This ORCA versions uses:
   CBLAS   interface :  Fast vector & matrix operations
   LAPACKE interface :  Fast linear algebra routines
   SCALAPACK package :  Parallel linear algebra routines
   Shared memory     :  Shared parallel matrices
   BLAS/LAPACK       :  OpenBLAS 0.3.29  USE64BITINT DYNAMIC_ARCH NO_AFFINITY Haswell SINGLE_THREADED
        Core in use  :  Haswell
   Copyright (c) 2011-2014, The OpenBLAS Project


  ***********************************
  * Starting time: Fri Aug 29 13:44:06 2025
  * Host name:     chemlab03
  * Process ID:    57737
  * Working dir.:  /home/vivek/mm-lab/6
  ***********************************



***************************************
The coordinates will be read from file: ethane-geometry.xyz
***************************************


================================================================================

----- Orbital basis set information -----
Your calculation utilizes the basis: 6-31G**
   H-He, Li-Ne : W. J. Hehre, R. Ditchfield and J.A. Pople, J. Chem. Phys. 56, 2257 (1972).
                 Note: He and Ne are unpublished basis sets taken from the Gaussian program.
                 Note: Li and B from J. D. Dill and J. A. Pople, J. Chem. Phys. 62, 2921 (1975).
   Na - Ar     : M. M. Francl, W. J. Pietro, W. J. Hehre, J. S. Binkley, M. S. Gordon, 
                 D. J. DeFrees and J. A. Pople, J. Chem. Phys. 77, 3654 (1982).
   K - Zn      : V. A. Rassolov, J. A. Pople, M. A. Ratner, and T. L. Windus, J. Chem. Phys. 109, 1223 (1998).

================================================================================
                                        WARNINGS
                       Please study these warnings very carefully!
================================================================================


WARNING: The frozen-core approximation for MP2-gradient calculations is turned on by default.

WARNING: Geometry Optimization
  ===> : Switching off AutoStart
         For restart on a previous wavefunction, please use MOREAD

WARNING: Post HF methods need fully converged wavefunctions
  ===> : Setting SCFConvForced true
         You can overwrite this default with %scf ConvForced false 


================================================================================
                                       INPUT FILE
================================================================================
NAME = ethane.inp
|  1> ! MP2 6-31G** opt numfreq
|  2> 
|  3> * xyzfile 0 1 ethane-geometry.xyz
|  4> 
|  5>                          ****END OF INPUT****
================================================================================

                       *****************************
                       * Geometry Optimization Run *
                       *****************************

Geometry optimization settings:
Update method            Update   .... BFGS
Choice of coordinates    CoordSys .... (2022) Redundant Internals
Initial Hessian          InHess   .... Almloef's Model
Max. no of cycles        MaxIter  .... 50

Convergence Tolerances:
Energy Change            TolE     ....  5.0000e-06 Eh
Max. Gradient            TolMAXG  ....  3.0000e-04 Eh/bohr
RMS Gradient             TolRMSG  ....  1.0000e-04 Eh/bohr
Max. Displacement        TolMAXD  ....  4.0000e-03 bohr
RMS Displacement         TolRMSD  ....  2.0000e-03 bohr
Strict Convergence                .... False

------------------------------------------------------------------------------
                        ORCA OPTIMIZATION COORDINATE SETUP
------------------------------------------------------------------------------

The optimization will be done in redundant internal coordinates (2022)
Making redundant internal coordinates   ...  (2022 redundants) done
Evaluating the initial hessian          ...  (Almloef) done
Evaluating the coordinates              ...  done
Calculating the B-matrix                .... done
Calculating the G-matrix                .... done
The number of degrees of freedom        ....   25

    -----------------------------------------------------------------
                    Redundant Internal Coordinates


    -----------------------------------------------------------------
         Definition                    Initial Value    Approx d2E/dq
    -----------------------------------------------------------------
      1. B(C   1,C   0)                  1.5117         0.399581   
      2. B(H   2,C   0)                  1.0946         0.354084   
      3. B(H   3,C   0)                  1.0944         0.354388   
      4. B(H   4,C   0)                  1.0940         0.354877   
      5. B(H   5,C   1)                  1.0940         0.354838   
      6. B(H   6,C   1)                  1.0943         0.354509   
      7. B(H   7,C   1)                  1.0945         0.354147   
      8. A(H   2,C   0,H   4)          108.3417         0.289407   
      9. A(C   1,C   0,H   4)          110.6004         0.327142   
     10. A(C   1,C   0,H   2)          110.5620         0.327021   
     11. A(H   3,C   0,H   4)          108.3532         0.289446   
     12. A(H   2,C   0,H   3)          108.3240         0.289345   
     13. A(C   1,C   0,H   3)          110.5789         0.327067   
     14. A(C   0,C   1,H   5)          110.5973         0.327136   
     15. A(H   6,C   1,H   7)          108.3293         0.289368   
     16. A(H   5,C   1,H   7)          108.3420         0.289410   
     17. A(C   0,C   1,H   7)          110.5597         0.327031   
     18. A(H   5,C   1,H   6)          108.3549         0.289457   
     19. A(C   0,C   1,H   6)          110.5772         0.327086   
     20. D(H   5,C   1,C   0,H   3)     59.9703         0.012669   
     21. D(H   5,C   1,C   0,H   4)    179.9993         0.012669   
     22. D(H   6,C   1,C   0,H   2)     60.0309         0.012669   
     23. D(H   6,C   1,C   0,H   3)    179.9983         0.012669   
     24. D(H   6,C   1,C   0,H   4)    -59.9727         0.012669   
     25. D(H   5,C   1,C   0,H   2)    -59.9971         0.012669   
    -----------------------------------------------------------------

Number of atoms                         .... 8
Number of degrees of freedom            .... 25


         *************************************************************
         *                GEOMETRY OPTIMIZATION CYCLE   1            *
         *************************************************************
---------------------------------
CARTESIAN COORDINATES (ANGSTROEM)
---------------------------------
  C     -4.003122    1.781333   -0.000187
  C     -2.706732    1.003804    0.000163
  H     -4.298675    2.036445    1.022400
  H     -3.894495    2.710057   -0.568764
  H     -4.805439    1.191763   -0.453487
  H     -1.904428    1.593439    0.453473
  H     -2.815373    0.075181    0.568723
  H     -2.411205    0.748759   -1.022397

----------------------------
CARTESIAN COORDINATES (A.U.)
----------------------------
  NO LB      ZA    FRAG     MASS         X           Y           Z
   0 C     6.0000    0    12.011   -7.564804    3.366232   -0.000353
   1 C     6.0000    0    12.011   -5.114982    1.896915    0.000308
   2 H     1.0000    0     1.008   -8.123318    3.848323    1.932056
   3 H     1.0000    0     1.008   -7.359529    5.121266   -1.074808
   4 H     1.0000    0     1.008   -9.080964    2.252106   -0.856966
   5 H     1.0000    0     1.008   -3.598847    3.011163    0.856940
   6 H     1.0000    0     1.008   -5.320284    0.142072    1.074731
   7 H     1.0000    0     1.008   -4.556517    1.414949   -1.932050

--------------------------------
INTERNAL COORDINATES (ANGSTROEM)
--------------------------------
 C      0   0   0     0.000000000000     0.00000000     0.00000000
 C      1   0   0     1.511680687328     0.00000000     0.00000000
 H      1   2   0     1.094585712003   110.56195052     0.00000000
 H      1   2   3     1.094352730263   110.57891393   119.96747554
 H      1   2   3     1.093977259082   110.60038861   239.99643187
 H      2   1   3     1.094006900225   110.59731094   300.00285564
 H      2   1   3     1.094259574603   110.57716810    60.03085022
 H      2   1   3     1.094537853778   110.55971735   180.00236108

---------------------------
INTERNAL COORDINATES (A.U.)
---------------------------
 C      0   0   0     0.000000000000     0.00000000     0.00000000
 C      1   0   0     2.856662500988     0.00000000     0.00000000
 H      1   2   0     2.068467225790   110.56195052     0.00000000
 H      1   2   3     2.068026954106   110.57891393   119.96747554
 H      1   2   3     2.067317416403   110.60038861   239.99643187
 H      2   1   3     2.067373430046   110.59731094   300.00285564
 H      2   1   3     2.067850915421   110.57716810    60.03085022
 H      2   1   3     2.068376786851   110.55971735   180.00236108

---------------------
BASIS SET INFORMATION
---------------------
There are 2 groups of distinct atoms

 Group   1 Type C   : 10s4p1d contracted to 3s2p1d pattern {631/31/1}
 Group   2 Type H   : 4s1p contracted to 2s1p pattern {31/1}

Atom   0C    basis set group =>   1
Atom   1C    basis set group =>   1
Atom   2H    basis set group =>   2
Atom   3H    basis set group =>   2
Atom   4H    basis set group =>   2
Atom   5H    basis set group =>   2
Atom   6H    basis set group =>   2
Atom   7H    basis set group =>   2
------------------------------------------------------------------------------
                             ORCA STARTUP CALCULATIONS
------------------------------------------------------------------------------
------------------------------------------------------------------------------
                   ___                                                        
                  /   \      - P O W E R E D   B Y -                         
                 /     \                                                     
                 |  |  |   _    _      __       _____    __    __             
                 |  |  |  | |  | |    /  \     |  _  \  |  |  /  |          
                  \  \/   | |  | |   /    \    | | | |  |  | /  /          
                 / \  \   | |__| |  /  /\  \   | |_| |  |  |/  /          
                |  |  |   |  __  | /  /__\  \  |    /   |      \           
                |  |  |   | |  | | |   __   |  |    \   |  |\   \          
                \     /   | |  | | |  |  |  |  | |\  \  |  | \   \       
                 \___/    |_|  |_| |__|  |__|  |_| \__\ |__|  \__/        
                                                                              
                      - O R C A' S   B I G   F R I E N D -                    
                                      &                                       
                       - I N T E G R A L  F E E D E R -                       
                                                                              
 v1 FN, 2020, v2 2021, v3 2022-2024                                           
------------------------------------------------------------------------------


----------------------
SHARK INTEGRAL PACKAGE
----------------------

Number of atoms                             ...      8
Number of basis functions                   ...     58
Number of shells                            ...     30
Maximum angular momentum                    ...      2
Integral batch strategy                     ... SHARK/LIBINT Hybrid
RI-J (if used) integral strategy            ... SPLIT-RIJ (Revised 2003 algorithm where possible)
Printlevel                                  ...      1
Contraction scheme used                     ... SEGMENTED contraction
Prescreening option                         ... SCHWARTZ
   Thresh                                   ... 2.500e-11
   Tcut                                     ... 2.500e-12
   Tpresel                                  ... 2.500e-12 
Coulomb Range Separation                    ... NOT USED
Exchange Range Separation                   ... NOT USED
Multipole approximations                    ... NOT USED
Finite Nucleus Model                        ... NOT USED
CABS basis                                  ... NOT available
Auxiliary Coulomb fitting basis             ... NOT available
Auxiliary J/K fitting basis                 ... NOT available
Auxiliary Correlation fitting basis         ... NOT available
Auxiliary 'external' fitting basis          ... NOT available

Checking pre-screening integrals            ... done (  0.0 sec) Dimension = 30
   => SHARK Basis and OBASIS are compatible. Storing Pre-screening
Shell pair information
Shell pair cut-off parameter TPreSel        ...   2.5e-12
Total number of shell pairs                 ...       465
Shell pairs after pre-screening             ...       465
Total number of primitive shell pairs       ...      1890
Primitive shell pairs kept                  ...      1655
          la=0 lb=0:    171 shell pairs
          la=1 lb=0:    180 shell pairs
          la=1 lb=1:     55 shell pairs
          la=2 lb=0:     36 shell pairs
          la=2 lb=1:     20 shell pairs
          la=2 lb=2:      3 shell pairs

Checking whether 4 symmetric matrices of dimension 58 fit in memory
:Max Core in MB      =   4096.00
 MB in use           =      1.82
 MB left             =   4094.18
 MB needed           =      0.05
 Data fit in memory  = YES
Calculating Nuclear repulsion               ... done (  0.0 sec) ENN=     42.426610466697 Eh

Diagonalization of the overlap matrix:
Smallest eigenvalue                        ... 8.520e-03
Time for diagonalization                   ...    0.000 sec
Threshold for overlap eigenvalues          ... 1.000e-07
Number of eigenvalues below threshold      ... 0
Time for construction of square roots      ...    0.000 sec
Total time needed                          ...    0.000 sec

-------------------
DFT GRID GENERATION
-------------------

General Integration Accuracy     IntAcc      ... 4.388
Radial Grid Type                 RadialGrid  ... OptM3 with GC (2021)
Angular Grid (max. ang.)         AngularGrid ... 4 (Lebedev-302)
Angular grid pruning method      GridPruning ... 4 (adaptive)
Weight generation scheme         WeightScheme... mBecke (2022)
Basis function cutoff            BFCut       ... 1.0000e-11
Integration weight cutoff        WCut        ... 1.0000e-14
Partially contracted basis set               ... off
Rotationally invariant grid construction     ... off
Angular grids for H and He will be reduced by one unit

Total number of grid points                  ...    31704
Total number of batches                      ...      498
Average number of points per batch           ...       63
Average number of grid points per atom       ...     3963
Grids setup in   0.1 sec
Initializing property integral containers    ... done (  0.0 sec)

SHARK setup successfully completed in   0.1 seconds

Maximum memory used throughout the entire STARTUP-calculation: 11.5 MB
-------------------------------------------------------------------------------
                                 ORCA GUESS
                   Start orbitals & Density for SCF / CASSCF
-------------------------------------------------------------------------------

------------
SCF SETTINGS
------------
Hamiltonian:
 Ab initio Hamiltonian  Method          .... Hartree-Fock(GTOs)


General Settings:
 Integral files         IntName         .... ethane
 Hartree-Fock type      HFTyp           .... RHF
 Total Charge           Charge          ....    0
 Multiplicity           Mult            ....    1
 Number of Electrons    NEL             ....   18
 Basis Dimension        Dim             ....   58
 Nuclear Repulsion      ENuc            ....     42.4266104667 Eh

Convergence Acceleration:
 AO-DIIS                CNVDIIS         .... on
   Start iteration      DIISMaxIt       ....    12
   Startup error        DIISStart       ....  0.200000
   # of expansion vecs  DIISMaxEq       ....     5
   Bias factor          DIISBfac        ....   1.050
   Max. coefficient     DIISMaxC        ....  10.000
 MO-DIIS                CNVKDIIS        .... off
 Trust-Rad. Augm. Hess. CNVTRAH         .... auto
   Auto Start mean grad. ratio tolernc. ....  1.125000
   Auto Start start iteration           ....    50
   Auto Start num. interpolation iter.  ....    10
   Max. Number of Micro iterations      ....    24
   Max. Number of Macro iterations      .... Maxiter - #DIIS iter
   Number of Davidson start vectors     ....     2
   Converg. threshold    (grad. norm)   ....   1.000e-05
   Grad. Scal. Fac. for Micro threshold ....   0.100
   Minimum threshold for Micro iter.    ....   1.000e-02
   NR start threshold (gradient norm)   ....   1.000e-04
   Initial trust radius                 ....   0.400
   Minimum AH scaling param. (alpha)    ....   1.000
   Maximum AH scaling param. (alpha)    .... 1000.000
   Quad. conv. algorithm                .... NR
   White noise on init. David. guess    .... on
   Maximum white noise                  ....   0.010
   Pseudo random numbers                .... off
   Inactive MOs                         .... canonical
   Orbital update algorithm             .... Taylor
   Preconditioner                       .... Diag
   Full preconditioner red. dimension   ....   250
 SOSCF                 CNVSOSCF           .... on
   Start iteration     SOSCFMaxIt         ....   150
   Startup grad/error  SOSCFStart         ....  0.003300
   Hessian update      SOSCFHessUp        .... L-BFGS
   Autom. constraints  SOSCFAutoConstrain .... off
 Level Shifting         CNVShift        .... on
   Level shift para.    LevelShift      ....    0.2500
   Turn off err/grad.   ShiftErr        ....    0.0010
 Zerner damping         CNVZerner       .... off
 Static damping         CNVDamp         .... on
   Fraction old density DampFac         ....    0.7000
   Max. Damping (<1)    DampMax         ....    0.9800
   Min. Damping (>=0)   DampMin         ....    0.0000
   Turn off err/grad.   DampErr         ....    0.1000

SCF Procedure:
 Maximum # iterations   MaxIter         ....   125
 SCF integral mode      SCFMode         .... Direct
   Integral package                     .... SHARK and LIBINT hybrid scheme
 Reset frequency        DirectResetFreq ....    20
 Integral Threshold     Thresh          ....  2.500e-11 Eh
 Primitive CutOff       TCut            ....  2.500e-12 Eh

Convergence Tolerance:
 Convergence Check Mode ConvCheckMode   .... Total+1el-Energy
 Convergence forced     ConvForced      .... 1
 Energy Change          TolE            ....  1.000e-08 Eh
 1-El. energy change                    ....  1.000e-05 Eh
 Orbital Gradient       TolG            ....  1.000e-05
 Orbital Rotation angle TolX            ....  1.000e-05
 DIIS Error             TolErr          ....  5.000e-07

------------------------------
INITIAL GUESS: MODEL POTENTIAL
------------------------------
Loading Hartree-Fock densities                     ... done
Calculating cut-offs                               ... done
Initializing the effective Hamiltonian             ... done
Setting up the integral package (SHARK)            ... done
Starting the Coulomb interaction                   ... done (   0.0 sec)
Making the grid                                    ... done (   0.0 sec)
Mapping shells                                     ... done
Starting the XC term evaluation                    ... done (   0.0 sec)
Transforming the Hamiltonian                       ... done (   0.0 sec)
Diagonalizing the Hamiltonian                      ... done (   0.0 sec)
Back transforming the eigenvectors                 ... done (   0.0 sec)
Now organizing SCF variables                       ... done
                      ------------------
                      INITIAL GUESS DONE (   0.0 sec)
                      ------------------
             **** ENERGY FILE WAS UPDATED (ethane.en.tmp) ****
Finished Guess after   0.0 sec
Maximum memory used throughout the entire GUESS-calculation: 4.3 MB

-------------------------------------------------------------------------------------------
                                      ORCA LEAN-SCF
                              memory conserving SCF solver
-------------------------------------------------------------------------------------------

----------------------------------------D-I-I-S--------------------------------------------
Iteration    Energy (Eh)           Delta-E    RMSDP     MaxDP     DIISErr   Damp  Time(sec)
-------------------------------------------------------------------------------------------
               ***  Starting incremental Fock matrix formation  ***
    1    -79.0803328368231746     0.00e+00  4.25e-03  5.69e-02  2.11e-01  0.700   0.0
    2    -79.1372022869338281    -5.69e-02  3.38e-03  4.31e-02  1.38e-01  0.700   0.0
                               ***Turning on AO-DIIS***
    3    -79.1710585298076239    -3.39e-02  1.86e-03  2.24e-02  8.20e-02  0.700   0.0
    4    -79.1921058440158845    -2.10e-02  4.09e-03  4.77e-02  5.49e-02  0.000   0.0
    5    -79.2374357783432686    -4.53e-02  3.68e-04  2.69e-03  3.87e-03  0.000   0.0
                              *** Initializing SOSCF ***
---------------------------------------S-O-S-C-F--------------------------------------
Iteration    Energy (Eh)           Delta-E    RMSDP     MaxDP     MaxGrad    Time(sec)
--------------------------------------------------------------------------------------
    6    -79.2375395556473308    -1.04e-04  2.08e-04  1.42e-03  1.34e-03     0.0
               *** Restarting incremental Fock matrix formation ***
    7    -79.2375583361881013    -1.88e-05  8.16e-05  6.10e-04  4.14e-04     0.0
    8    -79.2375600752866234    -1.74e-06  3.95e-05  2.81e-04  1.78e-04     0.0
    9    -79.2375603066239336    -2.31e-07  2.68e-06  3.17e-05  2.93e-05     0.0
   10    -79.2375603106986830    -4.07e-09  8.07e-07  6.80e-06  5.74e-06     0.0
                 **** Energy Check signals convergence ****

               *****************************************************
               *                     SUCCESS                       *
               *           SCF CONVERGED AFTER  10 CYCLES          *
               *****************************************************

             **** ENERGY FILE WAS UPDATED (ethane.en.tmp) ****

----------------
TOTAL SCF ENERGY
----------------

Total Energy       :        -79.23756031109093 Eh           -2156.16363 eV

Components:
Nuclear Repulsion  :         42.42661046669670 Eh            1154.48676 eV
Electronic Energy  :       -121.66417077778763 Eh           -3310.65040 eV
One Electron Energy:       -189.42455935635778 Eh           -5154.50431 eV
Two Electron Energy:         67.76038857857014 Eh            1843.85391 eV

Virial components:
Potential Energy   :       -158.44781568252876 Eh           -4311.58426 eV
Kinetic Energy     :         79.21025537143782 Eh            2155.42063 eV
Virial Ratio       :          2.00034471470298

---------------
SCF CONVERGENCE
---------------

  Last Energy change         ...    4.0747e-09  Tolerance :   1.0000e-08
  Last MAX-Density change    ...    6.8000e-06  Tolerance :   1.0000e-07
  Last RMS-Density change    ...    8.0700e-07  Tolerance :   5.0000e-09
  Last DIIS Error            ...    1.3427e-03  Tolerance :   5.0000e-07
  Last Orbital Gradient      ...    5.7428e-06  Tolerance :   1.0000e-05
  Last Orbital Rotation      ...    5.1737e-06  Tolerance :   1.0000e-05


----------------
ORBITAL ENERGIES
----------------

  NO   OCC          E(Eh)            E(eV) 
   0   2.0000     -11.211815      -305.0890 
   1   2.0000     -11.211199      -305.0722 
   2   2.0000      -1.021203       -27.7883 
   3   2.0000      -0.836407       -22.7598 
   4   2.0000      -0.598201       -16.2779 
   5   2.0000      -0.598045       -16.2736 
   6   2.0000      -0.508206       -13.8290 
   7   2.0000      -0.483507       -13.1569 
   8   2.0000      -0.483308       -13.1515 
   9   0.0000       0.240504         6.5444 
  10   0.0000       0.303909         8.2698 
  11   0.0000       0.314917         8.5693 
  12   0.0000       0.314987         8.5712 
  13   0.0000       0.335637         9.1331 
  14   0.0000       0.335767         9.1367 
  15   0.0000       0.415497        11.3063 
  16   0.0000       0.698773        19.0146 
  17   0.0000       0.744078        20.2474 
  18   0.0000       0.744232        20.2516 
  19   0.0000       0.828098        22.5337 
*Only the first 10 virtual orbitals were printed.

                    ********************************
                    * MULLIKEN POPULATION ANALYSIS *
                    ********************************

-----------------------
MULLIKEN ATOMIC CHARGES
-----------------------
   0 C :   -0.330060
   1 C :   -0.330055
   2 H :    0.109922
   3 H :    0.110002
   4 H :    0.110122
   5 H :    0.110113
   6 H :    0.110024
   7 H :    0.109933
Sum of atomic charges:    0.0000000

--------------------------------
MULLIKEN REDUCED ORBITAL CHARGES
--------------------------------
  0 C s       :     3.259818  s :     3.259818
      pz      :     1.045619  p :     3.027608
      px      :     0.965262
      py      :     1.016727
      dz2     :     0.009038  d :     0.042634
      dxz     :     0.006359
      dyz     :     0.008962
      dx2y2   :     0.007573
      dxy     :     0.010703

  1 C s       :     3.259799  s :     3.259799
      pz      :     1.045629  p :     3.027621
      px      :     0.965255
      py      :     1.016737
      dz2     :     0.009039  d :     0.042635
      dxz     :     0.006359
      dyz     :     0.008962
      dx2y2   :     0.007572
      dxy     :     0.010703

  2 H s       :     0.877532  s :     0.877532
      pz      :     0.008036  p :     0.012546
      px      :     0.002310
      py      :     0.002201

  3 H s       :     0.877448  s :     0.877448
      pz      :     0.003743  p :     0.012550
      px      :     0.001823
      py      :     0.006984

  4 H s       :     0.877322  s :     0.877322
      pz      :     0.003046  p :     0.012557
      px      :     0.005674
      py      :     0.003837

  5 H s       :     0.877331  s :     0.877331
      pz      :     0.003046  p :     0.012556
      px      :     0.005673
      py      :     0.003837

  6 H s       :     0.877424  s :     0.877424
      pz      :     0.003744  p :     0.012552
      px      :     0.001824
      py      :     0.006984

  7 H s       :     0.877520  s :     0.877520
      pz      :     0.008036  p :     0.012547
      px      :     0.002310
      py      :     0.002201



                     *******************************
                     * LOEWDIN POPULATION ANALYSIS *
                     *******************************

----------------------
LOEWDIN ATOMIC CHARGES
----------------------
   0 C :   -0.187488
   1 C :   -0.187484
   2 H :    0.062489
   3 H :    0.062495
   4 H :    0.062499
   5 H :    0.062503
   6 H :    0.062495
   7 H :    0.062491

-------------------------------
LOEWDIN REDUCED ORBITAL CHARGES
-------------------------------
  0 C s       :     2.908964  s :     2.908964
      pz      :     1.082577  p :     3.202961
      px      :     1.049638
      py      :     1.070745
      dz2     :     0.015248  d :     0.075564
      dxz     :     0.011526
      dyz     :     0.014847
      dx2y2   :     0.014241
      dxy     :     0.019701

  1 C s       :     2.908944  s :     2.908944
      pz      :     1.082585  p :     3.202974
      px      :     1.049633
      py      :     1.070756
      dz2     :     0.015250  d :     0.075566
      dxz     :     0.011525
      dyz     :     0.014848
      dx2y2   :     0.014240
      dxy     :     0.019702

  2 H s       :     0.898948  s :     0.898948
      pz      :     0.023376  p :     0.038563
      px      :     0.007722
      py      :     0.007465

  3 H s       :     0.898915  s :     0.898915
      pz      :     0.011700  p :     0.038590
      px      :     0.006449
      py      :     0.020440

  4 H s       :     0.898869  s :     0.898869
      pz      :     0.009809  p :     0.038633
      px      :     0.016833
      py      :     0.011991

  5 H s       :     0.898868  s :     0.898868
      pz      :     0.009807  p :     0.038629
      px      :     0.016830
      py      :     0.011991

  6 H s       :     0.898905  s :     0.898905
      pz      :     0.011704  p :     0.038600
      px      :     0.006452
      py      :     0.020444

  7 H s       :     0.898941  s :     0.898941
      pz      :     0.023379  p :     0.038568
      px      :     0.007723
      py      :     0.007466



                      *****************************
                      * MAYER POPULATION ANALYSIS *
                      *****************************

  NA   - Mulliken gross atomic population
  ZA   - Total nuclear charge
  QA   - Mulliken gross atomic charge
  VA   - Mayer's total valence
  BVA  - Mayer's bonded valence
  FA   - Mayer's free valence

  ATOM       NA         ZA         QA         VA         BVA        FA
  0 C      6.3301     6.0000    -0.3301     3.8598     3.8598     0.0000
  1 C      6.3301     6.0000    -0.3301     3.8598     3.8598    -0.0000
  2 H      0.8901     1.0000     0.1099     0.9504     0.9504    -0.0000
  3 H      0.8900     1.0000     0.1100     0.9504     0.9504     0.0000
  4 H      0.8899     1.0000     0.1101     0.9503     0.9503     0.0000
  5 H      0.8899     1.0000     0.1101     0.9503     0.9503    -0.0000
  6 H      0.8900     1.0000     0.1100     0.9504     0.9504     0.0000
  7 H      0.8901     1.0000     0.1099     0.9504     0.9504    -0.0000

  Mayer bond orders larger than 0.100000
B(  0-C ,  1-C ) :   0.9660 B(  0-C ,  2-H ) :   0.9774 B(  0-C ,  3-H ) :   0.9774 
B(  0-C ,  4-H ) :   0.9773 B(  1-C ,  5-H ) :   0.9773 B(  1-C ,  6-H ) :   0.9773 
B(  1-C ,  7-H ) :   0.9774 

-------
TIMINGS
-------

Total SCF time: 0 days 0 hours 0 min 0 sec 

Total time                  ....       0.431 sec
Sum of individual times     ....       0.392 sec  ( 91.1%)

SCF preparation             ....       0.012 sec  (  2.9%)
Fock matrix formation       ....       0.373 sec  ( 86.7%)
  Startup                   ....       0.000 sec  (  0.1% of F)
  Coulomb+Exchange Fock     ....       0.405 sec  (108.6% of F)
Diagonalization             ....       0.000 sec  (  0.0%)
Density matrix formation    ....       0.001 sec  (  0.2%)
Total Energy calculation    ....       0.000 sec  (  0.1%)
Population analysis         ....       0.001 sec  (  0.2%)
Orbital Transformation      ....       0.001 sec  (  0.2%)
Orbital Orthonormalization  ....       0.000 sec  (  0.0%)
DIIS solution               ....       0.003 sec  (  0.7%)
SOSCF solution              ....       0.001 sec  (  0.3%)
Finished LeanSCF after   0.4 sec

Maximum memory used throughout the entire LEANSCF-calculation: 7.8 MB

------------------------------------------------------------------------------
                                ORCA  MP2 
------------------------------------------------------------------------------

Freezing NCore=4 chemical core electrons
MP2 will be done in the AO integral direct mode
The Q1-step will be done using symmetric double matrices
Dimension of the basis                    ...   58
Memory devoted for MP2                    ... 4096 MB   
Memory needed for all in one shot         ...    6 MB
Number of MOs that can be treated together... 5408      
MP2 density construction                  ... relaxed
The MP2 gradient is requested => amplitudes will be stored on disk
Total number of MOs              ...    7
Number of MOs treated per batch  ...    7 
Number of batches necessary      ...    1 
OPERATORS   0/  0 PASS   0
-----------------------------------------------
 MP2 CORRELATION ENERGY   :     -0.302962343 Eh
-----------------------------------------------


---------------------
MP2 DENSITY FORMATION
---------------------

Completing the external part of the density      ... done
Storing the unrelaxed density                    ... done

Calculating G(D)                                 ... done
Completing the Lagrangian                        ... done
Solving the Z-vector equations                   ... 
-------------------
SHARK CP-SCF DRIVER
-------------------

Dimension of the orbital basis          ...     58
Dimension of the CPSCF-problem          ...    441
Number of operators                     ...      1
Max. number of iterations               ...    128
Convergence Tolerance                   ... 1.0e-04
Number of perturbations                 ...      1
Perturbation type                       ... REAL

----------------------------
POPLE LINEAR EQUATION SOLVER
----------------------------

  ITERATION   0:   ||err||_max =   3.2134e-02 (   0.1 sec)
  ITERATION   1:   ||err||_max =   4.7666e-03 (   0.1 sec)
  ITERATION   2:   ||err||_max =   7.6016e-04 (   0.1 sec)
  ITERATION   3:   ||err||_max =   7.7483e-05 (   0.1 sec)
                                                 ... done
Finalizing the relaxed density                   ... done
Transforming P to the AO basis                   ... done
Storing the relaxed density                      ... done

------------------------------------
ENERGY WEIGHTED DENSITY FINALIZATION
------------------------------------

Gathering the parts of the W-matrix              ...                                                      done
Forming the Z-density                            ... done
Transforming Z to the AO basis                   ... done
Calculating G(Z)                                 ... done
Finalizing the W-matrix                          ...                                                      done
Transforming W to the AO basis and storing       ... done

                *********************************************
                * UNRELAXED MP2 DENSITY POPULATION ANALYSIS *
                *********************************************

------------------------------------------------------------------------------
                           ORCA POPULATION ANALYSIS
------------------------------------------------------------------------------
Input electron density              ... ethane.pmp2ur
BaseName (.gbw .S,...)              ... ethane

                    ********************************
                    * MULLIKEN POPULATION ANALYSIS *
                    ********************************

-----------------------
MULLIKEN ATOMIC CHARGES
-----------------------
   0 C :   -0.332884
   1 C :   -0.332880
   2 H :    0.110864
   3 H :    0.110943
   4 H :    0.111063
   5 H :    0.111054
   6 H :    0.110965
   7 H :    0.110875
Sum of atomic charges:   -0.0000000

--------------------------------
MULLIKEN REDUCED ORBITAL CHARGES
--------------------------------
  0 C s       :     3.256694  s :     3.256694
      pz      :     1.042622  p :     3.018329
      px      :     0.962053
      py      :     1.013654
      dz2     :     0.011932  d :     0.057861
      dxz     :     0.009608
      dyz     :     0.011956
      dx2y2   :     0.010779
      dxy     :     0.013587
  1 C s       :     3.256676  s :     3.256676
      pz      :     1.042633  p :     3.018342
      px      :     0.962045
      py      :     1.013664
      dz2     :     0.011932  d :     0.057862
      dxz     :     0.009607
      dyz     :     0.011956
      dx2y2   :     0.010779
      dxy     :     0.013587
  2 H s       :     0.873869  s :     0.873869
      pz      :     0.008736  p :     0.015267
      px      :     0.003321
      py      :     0.003210
  3 H s       :     0.873785  s :     0.873785
      pz      :     0.004666  p :     0.015272
      px      :     0.002847
      py      :     0.007759
  4 H s       :     0.873659  s :     0.873659
      pz      :     0.004006  p :     0.015278
      px      :     0.006528
      py      :     0.004745
  5 H s       :     0.873668  s :     0.873668
      pz      :     0.004005  p :     0.015278
      px      :     0.006527
      py      :     0.004746
  6 H s       :     0.873761  s :     0.873761
      pz      :     0.004667  p :     0.015273
      px      :     0.002848
      py      :     0.007759
  7 H s       :     0.873857  s :     0.873857
      pz      :     0.008737  p :     0.015268
      px      :     0.003321
      py      :     0.003210


                     *******************************
                     * LOEWDIN POPULATION ANALYSIS *
                     *******************************

----------------------
LOEWDIN ATOMIC CHARGES
----------------------
   0 C :   -0.188235
   1 C :   -0.188230
   2 H :    0.062739
   3 H :    0.062744
   4 H :    0.062747
   5 H :    0.062751
   6 H :    0.062744
   7 H :    0.062740

-------------------------------
LOEWDIN REDUCED ORBITAL CHARGES
-------------------------------
  0 C s       :     2.908116  s :     2.908116
      pz      :     1.077678  p :     3.187498
      px      :     1.044176
      py      :     1.065644
      dz2     :     0.018608  d :     0.092621
      dxz     :     0.014962
      dyz     :     0.018228
      dx2y2   :     0.017699
      dxy     :     0.023123
  1 C s       :     2.908096  s :     2.908096
      pz      :     1.077686  p :     3.187511
      px      :     1.044171
      py      :     1.065654
      dz2     :     0.018610  d :     0.092624
      dxz     :     0.014961
      dyz     :     0.018230
      dx2y2   :     0.017699
      dxy     :     0.023124
  2 H s       :     0.894252  s :     0.894252
      pz      :     0.025315  p :     0.043009
      px      :     0.008990
      py      :     0.008704
  3 H s       :     0.894219  s :     0.894219
      pz      :     0.013115  p :     0.043037
      px      :     0.007638
      py      :     0.022284
  4 H s       :     0.894171  s :     0.894171
      pz      :     0.011138  p :     0.043082
      px      :     0.018538
      py      :     0.013405
  5 H s       :     0.894171  s :     0.894171
      pz      :     0.011137  p :     0.043078
      px      :     0.018536
      py      :     0.013405
  6 H s       :     0.894209  s :     0.894209
      pz      :     0.013119  p :     0.043048
      px      :     0.007641
      py      :     0.022288
  7 H s       :     0.894245  s :     0.894245
      pz      :     0.025318  p :     0.043014
      px      :     0.008992
      py      :     0.008705


                      *****************************
                      * MAYER POPULATION ANALYSIS *
                      *****************************

  NA   - Mulliken gross atomic population
  ZA   - Total nuclear charge
  QA   - Mulliken gross atomic charge
  VA   - Mayer's total valence
  BVA  - Mayer's bonded valence
  FA   - Mayer's free valence

  ATOM       NA         ZA         QA         VA         BVA        FA
  0 C      6.3329     6.0000    -0.3329     3.9460     3.7026     0.2434
  1 C      6.3329     6.0000    -0.3329     3.9460     3.7026     0.2434
  2 H      0.8891     1.0000     0.1109     0.9597     0.9136     0.0460
  3 H      0.8891     1.0000     0.1109     0.9596     0.9136     0.0460
  4 H      0.8889     1.0000     0.1111     0.9596     0.9136     0.0460
  5 H      0.8889     1.0000     0.1111     0.9596     0.9136     0.0460
  6 H      0.8890     1.0000     0.1110     0.9596     0.9136     0.0460
  7 H      0.8891     1.0000     0.1109     0.9597     0.9136     0.0460

  Mayer bond orders larger than 0.100000
B(  0-C ,  1-C ) :   0.9177 B(  0-C ,  2-H ) :   0.9411 B(  0-C ,  3-H ) :   0.9411 
B(  0-C ,  4-H ) :   0.9411 B(  1-C ,  5-H ) :   0.9411 B(  1-C ,  6-H ) :   0.9411 
B(  1-C ,  7-H ) :   0.9411 


                *******************************************
                * RELAXED MP2 DENSITY POPULATION ANALYSIS *
                *******************************************

------------------------------------------------------------------------------
                           ORCA POPULATION ANALYSIS
------------------------------------------------------------------------------
Input electron density              ... ethane.pmp2re
BaseName (.gbw .S,...)              ... ethane

                    ********************************
                    * MULLIKEN POPULATION ANALYSIS *
                    ********************************

-----------------------
MULLIKEN ATOMIC CHARGES
-----------------------
   0 C :   -0.324567
   1 C :   -0.324567
   2 H :    0.108110
   3 H :    0.108174
   4 H :    0.108271
   5 H :    0.108266
   6 H :    0.108194
   7 H :    0.108120
Sum of atomic charges:   -0.0000000

--------------------------------
MULLIKEN REDUCED ORBITAL CHARGES
--------------------------------
  0 C s       :     3.233657  s :     3.233657
      pz      :     1.046197  p :     3.037923
      px      :     0.972153
      py      :     1.019572
      dz2     :     0.010644  d :     0.052987
      dxz     :     0.009215
      dyz     :     0.011031
      dx2y2   :     0.010139
      dxy     :     0.011958
  1 C s       :     3.233640  s :     3.233640
      pz      :     1.046207  p :     3.037940
      px      :     0.972150
      py      :     1.019583
      dz2     :     0.010645  d :     0.052988
      dxz     :     0.009215
      dyz     :     0.011032
      dx2y2   :     0.010139
      dxy     :     0.011958
  2 H s       :     0.877354  s :     0.877354
      pz      :     0.007765  p :     0.014536
      px      :     0.003427
      py      :     0.003344
  3 H s       :     0.877286  s :     0.877286
      pz      :     0.004509  p :     0.014540
      px      :     0.003028
      py      :     0.007003
  4 H s       :     0.877182  s :     0.877182
      pz      :     0.003982  p :     0.014547
      px      :     0.006017
      py      :     0.004548
  5 H s       :     0.877188  s :     0.877188
      pz      :     0.003981  p :     0.014547
      px      :     0.006017
      py      :     0.004549
  6 H s       :     0.877264  s :     0.877264
      pz      :     0.004510  p :     0.014542
      px      :     0.003029
      py      :     0.007003
  7 H s       :     0.877343  s :     0.877343
      pz      :     0.007765  p :     0.014537
      px      :     0.003428
      py      :     0.003345


                     *******************************
                     * LOEWDIN POPULATION ANALYSIS *
                     *******************************

----------------------
LOEWDIN ATOMIC CHARGES
----------------------
   0 C :   -0.198966
   1 C :   -0.198963
   2 H :    0.066328
   3 H :    0.066323
   4 H :    0.066311
   5 H :    0.066317
   6 H :    0.066321
   7 H :    0.066329

-------------------------------
LOEWDIN REDUCED ORBITAL CHARGES
-------------------------------
  0 C s       :     2.906526  s :     2.906526
      pz      :     1.084284  p :     3.205043
      px      :     1.049114
      py      :     1.071645
      dz2     :     0.017253  d :     0.087397
      dxz     :     0.014523
      dyz     :     0.017255
      dx2y2   :     0.016988
      dxy     :     0.021378
  1 C s       :     2.906506  s :     2.906506
      pz      :     1.084290  p :     3.205057
      px      :     1.049111
      py      :     1.071656
      dz2     :     0.017255  d :     0.087400
      dxz     :     0.014522
      dyz     :     0.017256
      dx2y2   :     0.016987
      dxy     :     0.021378
  2 H s       :     0.890920  s :     0.890920
      pz      :     0.024747  p :     0.042752
      px      :     0.009164
      py      :     0.008841
  3 H s       :     0.890898  s :     0.890898
      pz      :     0.013045  p :     0.042779
      px      :     0.007871
      py      :     0.021864
  4 H s       :     0.890865  s :     0.890865
      pz      :     0.011150  p :     0.042824
      px      :     0.018319
      py      :     0.013355
  5 H s       :     0.890863  s :     0.890863
      pz      :     0.011148  p :     0.042820
      px      :     0.018317
      py      :     0.013355
  6 H s       :     0.890889  s :     0.890889
      pz      :     0.013049  p :     0.042790
      px      :     0.007874
      py      :     0.021867
  7 H s       :     0.890914  s :     0.890914
      pz      :     0.024750  p :     0.042757
      px      :     0.009166
      py      :     0.008842


                      *****************************
                      * MAYER POPULATION ANALYSIS *
                      *****************************

  NA   - Mulliken gross atomic population
  ZA   - Total nuclear charge
  QA   - Mulliken gross atomic charge
  VA   - Mayer's total valence
  BVA  - Mayer's bonded valence
  FA   - Mayer's free valence

  ATOM       NA         ZA         QA         VA         BVA        FA
  0 C      6.3246     6.0000    -0.3246     3.9729     3.7311     0.2418
  1 C      6.3246     6.0000    -0.3246     3.9729     3.7311     0.2418
  2 H      0.8919     1.0000     0.1081     0.9625     0.9165     0.0461
  3 H      0.8918     1.0000     0.1082     0.9625     0.9165     0.0460
  4 H      0.8917     1.0000     0.1083     0.9625     0.9164     0.0460
  5 H      0.8917     1.0000     0.1083     0.9625     0.9165     0.0460
  6 H      0.8918     1.0000     0.1082     0.9625     0.9165     0.0460
  7 H      0.8919     1.0000     0.1081     0.9625     0.9165     0.0461

  Mayer bond orders larger than 0.100000
B(  0-C ,  1-C ) :   0.9421 B(  0-C ,  2-H ) :   0.9403 B(  0-C ,  3-H ) :   0.9403 
B(  0-C ,  4-H ) :   0.9403 B(  1-C ,  5-H ) :   0.9403 B(  1-C ,  6-H ) :   0.9403 
B(  1-C ,  7-H ) :   0.9403 


----------------------------------
MP2 DERIVATIVE INTEGRAL GENERATION
----------------------------------

Input SCF Electron Density              ... ethane.scfp
Input Correlated Electron Density       ... ethane.pmp2re
Input Energy Weighted Density           ... ethane.wmp2.tmp
Input Wavefunction Amplitudes           ... ethane.mp2tsaa.tmp

Nuclear repulsion gradient              ... done (  0.0 sec)
HCore & Overlap gradient  (SHARK)       ... done (  0.0 sec)
Analytic two-electron gradient terms    ... 
  Batch handling in the gradient evaluation:
  General contraction                   ... not used
  Memory available                      ... 4093.5 MB
  Memory per occupied orbital in Q2     ...    0.2 MB
  Memory per occupied orbital in Q3     ...    0.0 MB
  Total memory requirement per |i>      ...    0.2 MB
  Number of orbitals treated per batch  ...      7
  Number of batches to be done          ...      1
done (  0.2 sec)

---------------------------------------
MP2 TOTAL ENERGY:      -79.540522654 Eh
---------------------------------------

The final MP2 gradient
  0:   0.00618728  -0.00403431  -0.00032172
  1:  -0.00619010   0.00395386   0.00031519
  2:   0.00074496  -0.00011728   0.00413228
  3:   0.00234575   0.00248803  -0.00220221
  4:  -0.00106269  -0.00331280  -0.00166240
  5:   0.00107467   0.00332673   0.00167032
  6:  -0.00234423  -0.00243420   0.00217419
  7:  -0.00075564   0.00012998  -0.00410564

-----------------------------------
NORM OF THE MP2 GRADIENT:  0.014366
-----------------------------------

Maximum memory used throughout the entire MP2-calculation: 15.3 MB

-------------------------   --------------------
FINAL SINGLE POINT ENERGY       -79.540522653750
-------------------------   --------------------

------------------------------------------------------------------------------
                         ORCA GEOMETRY RELAXATION STEP
------------------------------------------------------------------------------

Reading the OPT-File                    .... done
Getting information on internals        .... done
Copying old internal coords+grads       .... done
Making the new internal coordinates     .... (2022 redundants) done
Validating the new internal coordinates .... (2022 redundants) done
Calculating the B-matrix                .... done
Calculating the G,G- and P matrices     .... done
Transforming gradient to internals      .... done
Projecting the internal gradient        .... done
Number of atoms                         ....   8
Number of internal coordinates          ....  25
Current Energy                          ....   -79.540522654 Eh
Current gradient norm                   ....     0.014365578 Eh/bohr
Maximum allowed component of the step   ....  0.300
Current trust radius                    ....  0.300
Evaluating the initial hessian          ....  (Almloef) done
Projecting the Hessian                  .... done
Forming the augmented Hessian           .... done
Diagonalizing the augmented Hessian     .... done
Last element of RFO vector              ....  0.999145571
Lowest eigenvalues of augmented Hessian:
 -0.000606783  0.012668987  0.107606598  0.134569943  0.134646083
Length of the computed step             ....  0.041364837
The final length of the internal step   ....  0.041364837
Converting the step to Cartesian space:
 Initial RMS(Int)=    0.0082729674
Transforming coordinates:
 Iter   0:  RMS(Cart)=    0.0133467631 RMS(Int)=    1.7771610644
done
Storing new coordinates                 .... done

                                .--------------------.
          ----------------------|Geometry convergence|-------------------------
          Item                value                   Tolerance       Converged
          ---------------------------------------------------------------------
          RMS gradient        0.0029503678            0.0001000000      NO
          MAX gradient        0.0096048562            0.0003000000      NO
          RMS step            0.0082729674            0.0020000000      NO
          MAX step            0.0240008760            0.0040000000      NO
          -------------------------------------------------------------------------
          ........................................................
          Max(Bonds)      0.0127      Max(Angles)    0.41
          Max(Dihed)        0.01      Max(Improp)    0.00
          ---------------------------------------------------------------------

The optimization has not yet converged - more geometry cycles are needed


    ---------------------------------------------------------------------------
                         Redundant Internal Coordinates
                            (Angstroem and degrees)

        Definition                    Value    dE/dq     Step     New-Value
    ----------------------------------------------------------------------------
     1. B(C   1,C   0)                1.5117 -0.009605  0.0127    1.5244   
     2. B(H   2,C   0)                1.0946  0.003632 -0.0054    1.0892   
     3. B(H   3,C   0)                1.0944  0.003488 -0.0052    1.0892   
     4. B(H   4,C   0)                1.0940  0.003254 -0.0048    1.0891   
     5. B(H   5,C   1)                1.0940  0.003273 -0.0049    1.0891   
     6. B(H   6,C   1)                1.0943  0.003428 -0.0051    1.0892   
     7. B(H   7,C   1)                1.0945  0.003601 -0.0054    1.0892   
     8. A(H   2,C   0,H   4)          108.34  0.002161   -0.40    107.94   
     9. A(C   1,C   0,H   4)          110.60 -0.002030    0.38    110.98   
    10. A(C   1,C   0,H   2)          110.56 -0.002120    0.40    110.96   
    11. A(H   3,C   0,H   4)          108.35  0.002161   -0.41    107.95   
    12. A(H   2,C   0,H   3)          108.32  0.002157   -0.40    107.93   
    13. A(C   1,C   0,H   3)          110.58 -0.002079    0.39    110.97   
    14. A(C   0,C   1,H   5)          110.60 -0.002029    0.38    110.97   
    15. A(H   6,C   1,H   7)          108.33  0.002154   -0.40    107.93   
    16. A(H   5,C   1,H   7)          108.34  0.002178   -0.40    107.94   
    17. A(C   0,C   1,H   7)          110.56 -0.002123    0.40    110.96   
    18. A(H   5,C   1,H   6)          108.35  0.002161   -0.41    107.95   
    19. A(C   0,C   1,H   6)          110.58 -0.002091    0.39    110.96   
    20. D(H   5,C   1,C   0,H   3)     59.97 -0.000030    0.01     59.98   
    21. D(H   5,C   1,C   0,H   4)    180.00 -0.000002    0.00    180.00   
    22. D(H   6,C   1,C   0,H   2)     60.03  0.000022   -0.01     60.02   
    23. D(H   6,C   1,C   0,H   3)    180.00 -0.000009    0.00    180.00   
    24. D(H   6,C   1,C   0,H   4)    -59.97  0.000019   -0.01    -59.98   
    25. D(H   5,C   1,C   0,H   2)    -60.00  0.000001    0.00    -60.00   
    ----------------------------------------------------------------------------

Geometry step timings:
Preparation and reading OPT file:      0.000 s ( 3.293 %)
Internal coordinates            :      0.000 s ( 2.096 %)
B/P matrices and projection     :      0.000 s (30.838 %)
Hessian update/contruction      :      0.000 s (13.473 %)
Making the step                 :      0.000 s (20.659 %)
Converting the step to Cartesian:      0.000 s ( 4.790 %)
Storing new data                :      0.000 s ( 2.695 %)
Checking convergence            :      0.000 s ( 3.892 %)
Final printing                  :      0.000 s (18.263 %)
Total time                      :      0.000 s

Time for energy+gradient        :      1.275 s
Time for complete geometry iter :      1.286 s

         *************************************************************
         *                GEOMETRY OPTIMIZATION CYCLE   2            *
         *************************************************************
---------------------------------
CARTESIAN COORDINATES (ANGSTROEM)
---------------------------------
  C     -4.008530    1.784684   -0.000084
  C     -2.701328    1.000488    0.000065
  H     -4.308610    2.041896    1.014844
  H     -3.907423    2.710617   -0.564600
  H     -4.811940    1.203220   -0.450245
  H     -1.897949    1.581973    0.450253
  H     -2.802455    0.074552    0.564569
  H     -2.401235    0.743350   -1.014877

----------------------------
CARTESIAN COORDINATES (A.U.)
----------------------------
  NO LB      ZA    FRAG     MASS         X           Y           Z
   0 C     6.0000    0    12.011   -7.575024    3.372564   -0.000159
   1 C     6.0000    0    12.011   -5.104770    1.890649    0.000123
   2 H     1.0000    0     1.008   -8.142092    3.858625    1.917777
   3 H     1.0000    0     1.008   -7.383959    5.122324   -1.066940
   4 H     1.0000    0     1.008   -9.093249    2.273757   -0.850841
   5 H     1.0000    0     1.008   -3.586603    2.989496    0.850854
   6 H     1.0000    0     1.008   -5.295873    0.140883    1.066881
   7 H     1.0000    0     1.008   -4.537676    1.404728   -1.917839

--------------------------------
INTERNAL COORDINATES (ANGSTROEM)
--------------------------------
 C      0   0   0     0.000000000000     0.00000000     0.00000000
 C      1   0   0     1.524381403904     0.00000000     0.00000000
 H      1   2   0     1.089167017444   110.95631129     0.00000000
 H      1   2   3     1.089152572324   110.96440280   119.98008543
 H      1   2   3     1.089133984921   110.97497477   239.99766200
 H      2   1   3     1.089133797016   110.97287253   300.00360358
 H      2   1   3     1.089151092938   110.96356670    60.02088037
 H      2   1   3     1.089165831879   110.95483953   180.00401085

---------------------------
INTERNAL COORDINATES (A.U.)
---------------------------
 C      0   0   0     0.000000000000     0.00000000     0.00000000
 C      1   0   0     2.880663377021     0.00000000     0.00000000
 H      1   2   0     2.058227377069   110.95631129     0.00000000
 H      1   2   3     2.058200079749   110.96440280   119.98008543
 H      1   2   3     2.058164954647   110.97497477   239.99766200
 H      2   1   3     2.058164599559   110.97287253   300.00360358
 H      2   1   3     2.058197284113   110.96356670    60.02088037
 H      2   1   3     2.058225136675   110.95483953   180.00401085

------------------------------------------------------------------------------
                   ___                                                        
                  /   \      - P O W E R E D   B Y -                         
                 /     \                                                     
                 |  |  |   _    _      __       _____    __    __             
                 |  |  |  | |  | |    /  \     |  _  \  |  |  /  |          
                  \  \/   | |  | |   /    \    | | | |  |  | /  /          
                 / \  \   | |__| |  /  /\  \   | |_| |  |  |/  /          
                |  |  |   |  __  | /  /__\  \  |    /   |      \           
                |  |  |   | |  | | |   __   |  |    \   |  |\   \          
                \     /   | |  | | |  |  |  |  | |\  \  |  | \   \       
                 \___/    |_|  |_| |__|  |__|  |_| \__\ |__|  \__/        
                                                                              
                      - O R C A' S   B I G   F R I E N D -                    
                                      &                                       
                       - I N T E G R A L  F E E D E R -                       
                                                                              
 v1 FN, 2020, v2 2021, v3 2022-2024                                           
------------------------------------------------------------------------------


----------------------
SHARK INTEGRAL PACKAGE
----------------------

Number of atoms                             ...      8
Number of basis functions                   ...     58
Number of shells                            ...     30
Maximum angular momentum                    ...      2
Integral batch strategy                     ... SHARK/LIBINT Hybrid
RI-J (if used) integral strategy            ... SPLIT-RIJ (Revised 2003 algorithm where possible)
Printlevel                                  ...      1
Contraction scheme used                     ... SEGMENTED contraction
Prescreening option                         ... SCHWARTZ
   Thresh                                   ... 2.500e-11
   Tcut                                     ... 2.500e-12
   Tpresel                                  ... 2.500e-12 
Coulomb Range Separation                    ... NOT USED
Exchange Range Separation                   ... NOT USED
Multipole approximations                    ... NOT USED
Finite Nucleus Model                        ... NOT USED
CABS basis                                  ... NOT available
Auxiliary Coulomb fitting basis             ... NOT available
Auxiliary J/K fitting basis                 ... NOT available
Auxiliary Correlation fitting basis         ... NOT available
Auxiliary 'external' fitting basis          ... NOT available

Checking pre-screening integrals            ... done (  0.0 sec) Dimension = 30
   => SHARK Basis and OBASIS are compatible. Storing Pre-screening
Shell pair information
Shell pair cut-off parameter TPreSel        ...   2.5e-12
Total number of shell pairs                 ...       465
Shell pairs after pre-screening             ...       465
Total number of primitive shell pairs       ...      1890
Primitive shell pairs kept                  ...      1655
          la=0 lb=0:    171 shell pairs
          la=1 lb=0:    180 shell pairs
          la=1 lb=1:     55 shell pairs
          la=2 lb=0:     36 shell pairs
          la=2 lb=1:     20 shell pairs
          la=2 lb=2:      3 shell pairs

Checking whether 4 symmetric matrices of dimension 58 fit in memory
:Max Core in MB      =   4096.00
 MB in use           =      1.85
 MB left             =   4094.15
 MB needed           =      0.05
 Data fit in memory  = YES
Calculating Nuclear repulsion               ... done (  0.0 sec) ENN=     42.357037328777 Eh

Diagonalization of the overlap matrix:
Smallest eigenvalue                        ... 8.792e-03
Time for diagonalization                   ...    0.000 sec
Threshold for overlap eigenvalues          ... 1.000e-07
Number of eigenvalues below threshold      ... 0
Time for construction of square roots      ...    0.000 sec
Total time needed                          ...    0.000 sec

-------------------
DFT GRID GENERATION
-------------------

General Integration Accuracy     IntAcc      ... 4.388
Radial Grid Type                 RadialGrid  ... OptM3 with GC (2021)
Angular Grid (max. ang.)         AngularGrid ... 4 (Lebedev-302)
Angular grid pruning method      GridPruning ... 4 (adaptive)
Weight generation scheme         WeightScheme... mBecke (2022)
Basis function cutoff            BFCut       ... 1.0000e-11
Integration weight cutoff        WCut        ... 1.0000e-14
Partially contracted basis set               ... off
Rotationally invariant grid construction     ... off
Angular grids for H and He will be reduced by one unit

Total number of grid points                  ...    31702
Total number of batches                      ...      498
Average number of points per batch           ...       63
Average number of grid points per atom       ...     3963
Grids setup in   0.1 sec
Initializing property integral containers    ... done (  0.0 sec)

SHARK setup successfully completed in   0.1 seconds

Maximum memory used throughout the entire STARTUP-calculation: 11.5 MB
Occupation numbers will be reassigned to an Aufbau configuration
             **** ENERGY FILE WAS UPDATED (ethane.en.tmp) ****
Finished Guess after   0.0 sec
Maximum memory used throughout the entire GUESS-calculation: 4.3 MB
----------------------------------------D-I-I-S--------------------------------------------
Iteration    Energy (Eh)           Delta-E    RMSDP     MaxDP     DIISErr   Damp  Time(sec)
-------------------------------------------------------------------------------------------
               ***  Starting incremental Fock matrix formation  ***
                              *** Initializing SOSCF ***
---------------------------------------S-O-S-C-F--------------------------------------
Iteration    Energy (Eh)           Delta-E    RMSDP     MaxDP     MaxGrad    Time(sec)
--------------------------------------------------------------------------------------
    1    -79.2380249954448175     0.00e+00  2.50e-04  3.19e-03  3.88e-04     0.0
               *** Restarting incremental Fock matrix formation ***
    2    -79.2380938019966834    -6.88e-05  9.17e-05  6.58e-04  9.64e-04     0.0
    3    -79.2381006922748270    -6.89e-06  3.68e-05  2.32e-04  2.17e-04     0.0
    4    -79.2381011722027324    -4.80e-07  4.03e-06  3.78e-05  2.20e-05     0.0
    5    -79.2381011762875005    -4.08e-09  1.44e-06  1.33e-05  5.69e-06     0.0
                 **** Energy Check signals convergence ****

               *****************************************************
               *                     SUCCESS                       *
               *           SCF CONVERGED AFTER   5 CYCLES          *
               *****************************************************

             **** ENERGY FILE WAS UPDATED (ethane.en.tmp) ****

----------------
TOTAL SCF ENERGY
----------------

Total Energy       :        -79.23810117670394 Eh           -2156.17835 eV

Components:
Nuclear Repulsion  :         42.35703732877675 Eh            1152.59358 eV
Electronic Energy  :       -121.59513850548069 Eh           -3308.77193 eV
One Electron Energy:       -189.28330631087982 Eh           -5150.66062 eV
Two Electron Energy:         67.68816780539913 Eh            1841.88869 eV

Virial components:
Potential Energy   :       -158.46608024310581 Eh           -4312.08127 eV
Kinetic Energy     :         79.22797906640187 Eh            2155.90291 eV
Virial Ratio       :          2.00012775928935

---------------
SCF CONVERGENCE
---------------

  Last Energy change         ...    4.0848e-09  Tolerance :   1.0000e-08
  Last MAX-Density change    ...    1.3349e-05  Tolerance :   1.0000e-07
  Last RMS-Density change    ...    1.4444e-06  Tolerance :   5.0000e-09
  Last DIIS Error            ...    2.7306e-03  Tolerance :   5.0000e-07
  Last Orbital Gradient      ...    5.6921e-06  Tolerance :   1.0000e-05
  Last Orbital Rotation      ...    1.1826e-05  Tolerance :   1.0000e-05


Total SCF time: 0 days 0 hours 0 min 0 sec 
Finished LeanSCF after   0.2 sec

Maximum memory used throughout the entire LEANSCF-calculation: 7.9 MB

------------------------------------------------------------------------------
                                ORCA  MP2 
------------------------------------------------------------------------------

Freezing NCore=4 chemical core electrons
MP2 will be done in the AO integral direct mode
The Q1-step will be done using symmetric double matrices
Dimension of the basis                    ...   58
Memory devoted for MP2                    ... 4096 MB   
Memory needed for all in one shot         ...    6 MB
Number of MOs that can be treated together... 5408      
MP2 density construction                  ... relaxed
The MP2 gradient is requested => amplitudes will be stored on disk
Total number of MOs              ...    7
Number of MOs treated per batch  ...    7 
Number of batches necessary      ...    1 
OPERATORS   0/  0 PASS   0
-----------------------------------------------
 MP2 CORRELATION ENERGY   :     -0.302754092 Eh
-----------------------------------------------


---------------------
MP2 DENSITY FORMATION
---------------------

Completing the external part of the density      ... done
Storing the unrelaxed density                    ... done

Calculating G(D)                                 ... done
Completing the Lagrangian                        ... done
Solving the Z-vector equations                   ... 
-------------------
SHARK CP-SCF DRIVER
-------------------

Dimension of the orbital basis          ...     58
Dimension of the CPSCF-problem          ...    441
Number of operators                     ...      1
Max. number of iterations               ...    128
Convergence Tolerance                   ... 1.0e-04
Number of perturbations                 ...      1
Perturbation type                       ... REAL

----------------------------
POPLE LINEAR EQUATION SOLVER
----------------------------

  ITERATION   0:   ||err||_max =   3.1661e-02 (   0.1 sec)
  ITERATION   1:   ||err||_max =   4.6243e-03 (   0.1 sec)
  ITERATION   2:   ||err||_max =   7.4630e-04 (   0.1 sec)
  ITERATION   3:   ||err||_max =   7.6246e-05 (   0.1 sec)
                                                 ... done
Finalizing the relaxed density                   ... done
Transforming P to the AO basis                   ... done
Storing the relaxed density                      ... done

------------------------------------
ENERGY WEIGHTED DENSITY FINALIZATION
------------------------------------

Gathering the parts of the W-matrix              ...                                                      done
Forming the Z-density                            ... done
Transforming Z to the AO basis                   ... done
Calculating G(Z)                                 ... done
Finalizing the W-matrix                          ...                                                      done
Transforming W to the AO basis and storing       ... done

----------------------------------
MP2 DERIVATIVE INTEGRAL GENERATION
----------------------------------

Input SCF Electron Density              ... ethane.scfp
Input Correlated Electron Density       ... ethane.pmp2re
Input Energy Weighted Density           ... ethane.wmp2.tmp
Input Wavefunction Amplitudes           ... ethane.mp2tsaa.tmp

Nuclear repulsion gradient              ... done (  0.0 sec)
HCore & Overlap gradient  (SHARK)       ... done (  0.0 sec)
Analytic two-electron gradient terms    ... 
  Batch handling in the gradient evaluation:
  General contraction                   ... not used
  Memory available                      ... 4093.4 MB
  Memory per occupied orbital in Q2     ...    0.2 MB
  Memory per occupied orbital in Q3     ...    0.0 MB
  Total memory requirement per |i>      ...    0.2 MB
  Number of orbitals treated per batch  ...      7
  Number of batches to be done          ...      1
done (  0.2 sec)

---------------------------------------
MP2 TOTAL ENERGY:      -79.540855269 Eh
---------------------------------------

The final MP2 gradient
[...]
    21:    3218.21 cm**-1
    22:    3237.75 cm**-1
    23:    3238.11 cm**-1


------------
NORMAL MODES
------------

These modes are the Cartesian displacements weighted by the diagonal matrix
M(i,i)=1/sqrt(m[i]) where m[i] is the mass of the displaced atom
Thus, these vectors are normalized but *not* orthogonal

                  0          1          2          3          4          5    
      0       0.000000   0.000000   0.000000   0.000000   0.000000   0.000000
      1       0.000000   0.000000   0.000000   0.000000   0.000000   0.000000
      2       0.000000   0.000000   0.000000   0.000000   0.000000   0.000000
      3       0.000000   0.000000   0.000000   0.000000   0.000000   0.000000
      4       0.000000   0.000000   0.000000   0.000000   0.000000   0.000000
      5       0.000000   0.000000   0.000000   0.000000   0.000000   0.000000
      6       0.000000   0.000000   0.000000   0.000000   0.000000   0.000000
      7       0.000000   0.000000   0.000000   0.000000   0.000000   0.000000
      8       0.000000   0.000000   0.000000   0.000000   0.000000   0.000000
      9       0.000000   0.000000   0.000000   0.000000   0.000000   0.000000
     10       0.000000   0.000000   0.000000   0.000000   0.000000   0.000000
     11       0.000000   0.000000   0.000000   0.000000   0.000000   0.000000
     12       0.000000   0.000000   0.000000   0.000000   0.000000   0.000000
     13       0.000000   0.000000   0.000000   0.000000   0.000000   0.000000
     14       0.000000   0.000000   0.000000   0.000000   0.000000   0.000000
     15       0.000000   0.000000   0.000000   0.000000   0.000000   0.000000
     16       0.000000   0.000000   0.000000   0.000000   0.000000   0.000000
     17       0.000000   0.000000   0.000000   0.000000   0.000000   0.000000
     18       0.000000   0.000000   0.000000   0.000000   0.000000   0.000000
     19       0.000000   0.000000   0.000000   0.000000   0.000000   0.000000
     20       0.000000   0.000000   0.000000   0.000000   0.000000   0.000000
     21       0.000000   0.000000   0.000000   0.000000   0.000000   0.000000
     22       0.000000   0.000000   0.000000   0.000000   0.000000   0.000000
     23       0.000000   0.000000   0.000000   0.000000   0.000000   0.000000
                  6          7          8          9         10         11    
      0      -0.000016  -0.018408   0.015898  -0.261532  -0.027045  -0.068806
      1       0.000008  -0.030746   0.026421   0.157008  -0.045093  -0.114292
      2       0.000028  -0.030838  -0.035836  -0.000122   0.133367  -0.052572
      3      -0.000028  -0.018403   0.015889   0.261605   0.027209   0.068680
      4      -0.000004  -0.030712   0.026411  -0.157050   0.044994   0.114336
      5       0.000020  -0.030818  -0.035823   0.000107  -0.133373   0.052581
      6      -0.209642   0.389989   0.236085  -0.315933  -0.338467   0.301624
      7      -0.349262  -0.042728  -0.312985   0.188094   0.323144   0.084094
      8       0.026422   0.098105   0.120525  -0.015492  -0.060048   0.010458
      9       0.116692   0.195614  -0.467705  -0.322646   0.334056   0.319727
     10       0.194246   0.060501   0.174041   0.178462  -0.246275  -0.026316
     11       0.339469   0.153551   0.132229   0.008756  -0.144693   0.152109
     12       0.093141  -0.366126   0.042269  -0.308618   0.089913  -0.398373
     13       0.154961   0.348408  -0.175897   0.201355   0.069702   0.310375
     14      -0.366186   0.115696   0.174194   0.007245  -0.225101   0.006894
     15       0.093159  -0.366152   0.042246   0.308294  -0.090393   0.398986
     16       0.154972   0.348410  -0.175869  -0.200967  -0.068977  -0.310948
     17      -0.366250   0.115800   0.174173  -0.007084   0.225253  -0.007205
     18       0.116705   0.195557  -0.467708   0.322280  -0.334979  -0.319328
     19       0.194247   0.060489   0.174057  -0.178452   0.246351   0.026392
     20       0.339504   0.153502   0.132288  -0.008607   0.144993  -0.152067
     21      -0.209536   0.389741   0.236052   0.315755   0.337918  -0.301138
     22      -0.349207  -0.042775  -0.312875  -0.187999  -0.322763  -0.084132
     23       0.026467   0.098021   0.120454   0.015360   0.059662  -0.010298
                 12         13         14         15         16         17    
      0       0.080237  -0.095958   0.009729   0.009001   0.005566   0.024392
      1      -0.048186   0.057698   0.016370   0.014720   0.009134   0.040643
      2      -0.000149   0.000094  -0.015905   0.017050  -0.048628   0.011170
      3       0.079221   0.096789  -0.008230  -0.007591   0.005822   0.025460
      4      -0.047535  -0.058210  -0.013475  -0.012573   0.009764   0.042354
      5       0.000215  -0.000143   0.016148  -0.017929  -0.048262   0.010947
      6      -0.323896   0.314862  -0.357105   0.025598  -0.261975  -0.187338
      7       0.181532  -0.176206  -0.253972  -0.380926  -0.015599  -0.437150
      8      -0.165998   0.174040  -0.046558   0.110734  -0.108541   0.065751
      9      -0.388878   0.384135   0.314002  -0.088287   0.277915   0.051921
     10       0.072610  -0.061467  -0.031155  -0.242013   0.152767  -0.190985
     11       0.092750  -0.097215  -0.012185  -0.416736   0.252598  -0.348339
     12      -0.241725   0.229387  -0.177226  -0.140395  -0.080224  -0.149504
     13       0.318587  -0.320031  -0.084617   0.287106  -0.242846   0.153389
     14       0.074104  -0.077252   0.434913  -0.100379   0.437507   0.148031
     15      -0.238693  -0.231864   0.166462   0.130268  -0.085773  -0.167605
     16       0.315877   0.322956   0.091841  -0.286389  -0.235477   0.161266
     17       0.071700   0.078342  -0.420412   0.120437   0.438448   0.171675
     18      -0.385963  -0.387845  -0.306491   0.098766   0.278525   0.068088
     19       0.071452   0.062561   0.019512   0.237217   0.145289  -0.204237
     20       0.090895   0.098504  -0.008935   0.407188   0.240158  -0.368423
     21      -0.320893  -0.318575   0.342494  -0.042748  -0.264157  -0.209584
     22       0.180528   0.178287   0.223888   0.359422  -0.029313  -0.471247
     23      -0.164243  -0.175837   0.050290  -0.110767  -0.105656   0.067755
                 18         19         20         21         22         23    
      0      -0.034693   0.026450  -0.030431   0.014726  -0.033868   0.001756
      1       0.020867  -0.015882  -0.050640   0.024632  -0.056410   0.003082
      2       0.000012   0.000101  -0.029109  -0.059436   0.003741   0.065283
      3       0.029020   0.032592   0.030279  -0.015004  -0.033855   0.001721
      4      -0.017404  -0.019526   0.050540  -0.024842  -0.056434   0.003182
      5       0.000080   0.000355   0.028605   0.058560   0.003429   0.066310
      6       0.116165  -0.094150  -0.084762  -0.133294  -0.007890   0.157953
      7      -0.101435   0.082597   0.056704   0.123814  -0.009942  -0.135294
      8      -0.417708   0.343976   0.268933   0.468116   0.005110  -0.531857
      9      -0.048993   0.042076   0.024150  -0.049990   0.043368   0.029564
     10      -0.376527   0.310294   0.238735  -0.426482   0.417953   0.251338
     11       0.232362  -0.191965  -0.159943   0.252468  -0.262033  -0.140810
     12       0.322704  -0.265418   0.424097   0.007382   0.368041  -0.208442
     13       0.243420  -0.202266   0.309443   0.008440   0.264189  -0.152767
     14       0.185110  -0.153124   0.238703  -0.010688   0.212397  -0.105194
     15      -0.266605  -0.323009  -0.421013  -0.001882   0.368747  -0.211137
     16      -0.200658  -0.245653  -0.307195  -0.004439   0.264681  -0.154750
     17      -0.152652  -0.186060  -0.237123   0.013542   0.212654  -0.106502
     18       0.040053   0.050792  -0.024392   0.049607   0.043245   0.029942
     19       0.310407   0.377299  -0.240639   0.423490   0.416952   0.254452
     20      -0.191378  -0.233366   0.160966  -0.250861  -0.261433  -0.142457
     21      -0.095734  -0.113822   0.083737   0.131491  -0.008543   0.160692
     22       0.083531   0.099641  -0.055849  -0.122325  -0.009221  -0.137616
     23       0.343165   0.415107  -0.265530  -0.462147   0.007871  -0.541203


-----------
IR SPECTRUM
-----------

 Mode   freq       eps      Int      T**2         TX        TY        TZ
       cm**-1   L/(mol*cm) km/mol    a.u.
----------------------------------------------------------------------------
  6:    335.16   0.000000    0.00  0.000000  ( 0.000108 -0.000041  0.000057)
  7:    845.27   0.000679    3.43  0.000251  ( 0.006190  0.010314  0.010300)
  8:    845.35   0.000669    3.38  0.000247  (-0.005351 -0.008705  0.011934)
  9:   1050.04   0.000000    0.00  0.000000  ( 0.000020  0.000031 -0.000007)
 10:   1267.14   0.000000    0.00  0.000000  ( 0.000034  0.000051 -0.000009)
 11:   1267.31   0.000000    0.00  0.000000  (-0.000018 -0.000029  0.000011)
 12:   1456.35   0.000086    0.44  0.000018  (-0.003711  0.002172 -0.000026)
 13:   1485.51   0.000000    0.00  0.000000  (-0.000067 -0.000031  0.000008)
 14:   1562.46   0.000001    0.01  0.000000  (-0.000238 -0.000424 -0.000052)
 15:   1562.66   0.000001    0.01  0.000000  (-0.000244 -0.000378  0.000137)
 16:   1566.17   0.001275    6.44  0.000254  (-0.001895 -0.003104  0.015519)
 17:   1566.54   0.001273    6.43  0.000254  (-0.008009 -0.013305 -0.003533)
 18:   3136.22   0.000083    0.42  0.000008  (-0.002458  0.001501  0.000044)
 19:   3137.53   0.009195   46.47  0.000915  ( 0.025946 -0.015537  0.000146)
 20:   3218.17   0.000000    0.00  0.000000  (-0.000072 -0.000013 -0.000142)
 21:   3218.21   0.000001    0.00  0.000000  (-0.000128 -0.000033 -0.000245)
 22:   3237.75   0.011345   57.33  0.001093  (-0.017006 -0.028303  0.001789)
 23:   3238.11   0.011316   57.19  0.001091  ( 0.000795  0.001606  0.032975)

* The epsilon (eps) is given for a Dirac delta lineshape.
** The dipole moment derivative (T) already includes vibrational overlap.

The first frequency considered to be a vibration is 6
The total number of vibrations considered is 18


--------------------------
THERMOCHEMISTRY AT 298.15K
--------------------------

Temperature         ...   298.15 K
Pressure            ...     1.00 atm
Total Mass          ...    30.07 AMU
Quasi RRHO          ...     True
Cut-Off Frequency   ...     1.00 cm^-1

Throughout the following assumptions are being made:
  (1) The electronic state is orbitally nondegenerate
  (2) There are no thermally accessible electronically excited states
  (3) Hindered rotations indicated by low frequency modes are not
      treated as such but are treated as vibrations and this may
      cause some error
  (4) All equations used are the standard statistical mechanics
      equations for an ideal gas
  (5) All vibrations are strictly harmonic

freq.     335.16  E(vib)   ...       0.24 
freq.     845.27  E(vib)   ...       0.04 
freq.     845.35  E(vib)   ...       0.04 
freq.    1050.04  E(vib)   ...       0.02 
freq.    1267.14  E(vib)   ...       0.01 
freq.    1267.31  E(vib)   ...       0.01 
freq.    1456.35  E(vib)   ...       0.00 
freq.    1485.51  E(vib)   ...       0.00 
freq.    1562.46  E(vib)   ...       0.00 
freq.    1562.66  E(vib)   ...       0.00 
freq.    1566.17  E(vib)   ...       0.00 
freq.    1566.54  E(vib)   ...       0.00 
freq.    3136.22  E(vib)   ...       0.00 
freq.    3137.53  E(vib)   ...       0.00 
freq.    3218.17  E(vib)   ...       0.00 
freq.    3218.21  E(vib)   ...       0.00 
freq.    3237.75  E(vib)   ...       0.00 
freq.    3238.11  E(vib)   ...       0.00 

------------
INNER ENERGY
------------

The inner energy is: U= E(el) + E(ZPE) + E(vib) + E(rot) + E(trans)
    E(el)   - is the total energy from the electronic structure calculation
              = E(kin-el) + E(nuc-el) + E(el-el) + E(nuc-nuc)
    E(ZPE)  - the the zero temperature vibrational energy from the frequency calculation
    E(vib)  - the the finite temperature correction to E(ZPE) due to population
              of excited vibrational states
    E(rot)  - is the rotational thermal energy
    E(trans)- is the translational thermal energy

Summary of contributions to the inner energy U:
Electronic energy                ...    -79.54086935 Eh
Zero point energy                ...      0.07744849 Eh      48.60 kcal/mol
Thermal vibrational correction   ...      0.00059269 Eh       0.37 kcal/mol
Thermal rotational correction    ...      0.00141627 Eh       0.89 kcal/mol
Thermal translational correction ...      0.00141627 Eh       0.89 kcal/mol
-----------------------------------------------------------------------
Total thermal energy                    -79.45999563 Eh


Summary of corrections to the electronic energy:
(perhaps to be used in another calculation)
Total thermal correction                  0.00342523 Eh       2.15 kcal/mol
Non-thermal (ZPE) correction              0.07744849 Eh      48.60 kcal/mol
-----------------------------------------------------------------------
Total correction                          0.08087372 Eh      50.75 kcal/mol


--------
ENTHALPY
--------

The enthalpy is H = U + kB*T
                kB is Boltzmann's constant
Total thermal energy              ...    -79.45999563 Eh 
Thermal Enthalpy correction       ...      0.00094421 Eh       0.59 kcal/mol
-----------------------------------------------------------------------
Total Enthalpy                    ...    -79.45905142 Eh


Note: Rotational entropy computed according to Herzberg 
Infrared and Raman Spectra, Chapter V,1, Van Nostrand Reinhold, 1945 
Point Group:  D3d, Symmetry Number:   6  
Rotational constants in cm-1:     2.701834     0.670211     0.670210 

Vibrational entropy computed according to the QRRHO of S. Grimme
Chem.Eur.J. 2012 18 9955 using a reference frequency of 100.0 cm-1


-------
ENTROPY
-------

The entropy contributions are T*S = T*(S(el)+S(vib)+S(rot)+S(trans))
     S(el)   - electronic entropy
     S(vib)  - vibrational entropy
     S(rot)  - rotational entropy
     S(trans)- translational entropy
The entropies will be listed as multiplied by the temperature to get
units of energy

Electronic entropy                ...      0.00000000 Eh      0.00 kcal/mol
Vibrational entropy               ...      0.00084913 Eh      0.53 kcal/mol
Rotational entropy                ...      0.00772767 Eh      4.85 kcal/mol
Translational entropy             ...      0.01716939 Eh     10.77 kcal/mol
-----------------------------------------------------------------------
Final entropy term                ...      0.02574619 Eh     16.16 kcal/mol

In case the symmetry of your molecule has not been determined correctly
or in case you have a reason to use a different symmetry number we print 
out the resulting rotational entropy values for sn=1,12:

 non-linear molecules -----------------------------------
|  sn= 1 | S(rot)=       0.00941941 Eh      5.91 kcal/mol|
|  sn= 2 | S(rot)=       0.00876496 Eh      5.50 kcal/mol|
|  sn= 3 | S(rot)=       0.00838212 Eh      5.26 kcal/mol|
|  sn= 4 | S(rot)=       0.00811050 Eh      5.09 kcal/mol|
|  sn= 5 | S(rot)=       0.00789981 Eh      4.96 kcal/mol|
|  sn= 6 | S(rot)=       0.00772767 Eh      4.85 kcal/mol|
|  sn= 7 | S(rot)=       0.00758212 Eh      4.76 kcal/mol|
|  sn= 8 | S(rot)=       0.00745604 Eh      4.68 kcal/mol|
|  sn= 9 | S(rot)=       0.00734483 Eh      4.61 kcal/mol|
|  sn=10 | S(rot)=       0.00724535 Eh      4.55 kcal/mol|
|  sn=11 | S(rot)=       0.00715536 Eh      4.49 kcal/mol|
|  sn=12 | S(rot)=       0.00707321 Eh      4.44 kcal/mol|
 linear molecules ---------------------------------------
|  Dinfh | S(rot)=       0.00570363 Eh      3.58 kcal/mol|
|  Cinfv | S(rot)=       0.00635809 Eh      3.99 kcal/mol|
 --------------------------------------------------------


-------------------
GIBBS FREE ENERGY
-------------------

The Gibbs free energy is G = H - T*S

Total enthalpy                    ...    -79.45905142 Eh 
Total entropy correction          ...     -0.02574619 Eh    -16.16 kcal/mol
-----------------------------------------------------------------------
Final Gibbs free energy         ...    -79.48479761 Eh

For completeness - the Gibbs free energy minus the electronic energy
G-E(el)                           ...      0.05607174 Eh     35.19 kcal/mol



--------------------------------
SUGGESTED CITATIONS FOR THIS RUN
--------------------------------

Below you find a list of papers that are relevant to this ORCA run
We neither can nor want to force you to cite these papers, but we appreciate if you do
You receive ORCA, which is the product of decades of hard work by many enthusiastic individuals, for free
The only thing we kindly ask in return is that you cite our papers,
We deeply appreciate it, if you show your appreciation for ORCA by not just citing the generic ORCA reference.

Please note that relegating all ORCA citations to the supporting information does *not* help us.
SI sections are not indexed - citations you put there will not count into any citation statistics
But we need these citations in order to attract the funding resources that allow us to do what we are doing

Therefore, if you are a happy ORCA user, please consider citing a few of the papers listed below in the main body of your paper

In addition to the list printed below, the program has created the file ethane.bibtex that contains the list in bibtex format
You can import this file easily into all common literature databanks and citation aid programs


List of essential papers. We consider these as the minimum necessary citations

  1. Neese, F.
     Software update: the ORCA program system, version 6.0
     WIRES Comput. Molec. Sci. 2025 15(1), e70019
     doi.org/10.1002/wcms.7019

List of papers to cite with high priority. The work reported in these papers was absolutely
necessary for this run to complete.
Our perspective: the developers of density functionals and basis sets usually get cited in chemistry papers
Good! But without the algorithms to do something with them, the functionals or basis sets would not do anything.
Hence, in our opinion, the algorithm design and method developments papers are equally worthy of getting cited

  1. Neese, F.
     The SHARK Integral Generation and Digestion System
     J. Comp. Chem. 2022 44(3), 381
     doi.org/10.1002/jcc.26942

List of suggested additional citations. These are papers that are important in the 'surrounding' of 
of this run, or papers that preceded the highly important papers. If you like your results we are grateful for a citation.

  1. Neese, F.
     The ORCA program system
     WIRES Comput. Molec. Sci. 2012 2(1), 73-78
     doi.org/10.1002/wcms.81
  2. Neese, F.
     Software update: the ORCA program system, version 4.0
     WIRES Comput. Molec. Sci. 2018 8(1), 1-6
     doi.org/10.1002/wcms.1327
  3. Neese, F.; Wennmohs, F.; Becker, U.; Riplinger, C.
     The ORCA quantum chemistry program package
     J. Chem. Phys. 2020 152(22), 224108
     doi.org/10.1063/5.0004608
  4. Neese, F.
     Software update: The ORCA program system—Version 5.0
     WIRES Comput. Molec. Sci. 2022 12(1), e1606
     doi.org/10.1002/wcms.1606

List of optional additional citations

  1. Neese, F.
     Approximate second-order SCF convergence for spin unrestricted wavefunctions
     Chem. Phys. Lett. 2000 325(1-3), 93-98
     doi.org/10.1016/s0009-2614(00)00662-x

Timings for individual modules:

Sum of individual times          ...       63.022 sec (=   1.050 min)
Startup calculation              ...        0.587 sec (=   0.010 min)   0.9 %
SCF iterations                   ...        1.628 sec (=   0.027 min)   2.6 %
Property calculations            ...        0.028 sec (=   0.000 min)   0.0 %
MP2 module                       ...        4.031 sec (=   0.067 min)   6.4 %
Geometry relaxation              ...        0.014 sec (=   0.000 min)   0.0 %
Numerical frequency calculation  ...       56.735 sec (=   0.946 min)  90.0 %
                             ****ORCA TERMINATED NORMALLY****
TOTAL RUN TIME: 0 days 0 hours 1 minutes 2 seconds 224 msec
