
                                 *****************
                                 * O   R   C   A *
                                 *****************

                                            #,                                       
                                            ###                                      
                                            ####                                     
                                            #####                                    
                                            ######                                   
                                           ########,                                 
                                     ,,################,,,,,                         
                               ,,#################################,,                 
                          ,,##########################################,,             
                       ,#########################################, ''#####,          
                    ,#############################################,,   '####,        
                  ,##################################################,,,,####,       
                ,###########''''           ''''###############################       
              ,#####''   ,,,,##########,,,,          '''####'''          '####       
            ,##' ,,,,###########################,,,                        '##       
           ' ,,###''''                  '''############,,,                           
         ,,##''                                '''############,,,,        ,,,,,,###''
      ,#''                                            '''#######################'''  
     '                                                          ''''####''''         
             ,#######,   #######,   ,#######,      ##                                
            ,#'     '#,  ##    ##  ,#'     '#,    #''#        ,####,    ,#,          
            ##       ##  ##   ,#'  ##            #'  '#       #'       ,# #          
            ##       ##  #######   ##           ,######,      #####,      #          
            '#,     ,#'  ##    ##  '#,     ,#' ,#      #,     #,   #      #          
             '#######'   ##     ##  '#######'  #'      '#     '####' #    #          



                #########################################################
                #                        -***-                          #
                #          Department of theory and spectroscopy        #
                #                                                       #
                #                      Frank Neese                      #
                #                                                       #
                #     Directorship, Architecture, Infrastructure        #
                #                    SHARK, DRIVERS                     #
                #        Core code/Algorithms in most modules           #
                #                                                       #
                #        Max Planck Institute fuer Kohlenforschung      #
                #                Kaiser Wilhelm Platz 1                 #
                #                 D-45470 Muelheim/Ruhr                 #
                #                      Germany                          #
                #                                                       #
                #                  All rights reserved                  #
                #                        -***-                          #
                #########################################################


                         Program Version 6.1.0  -  RELEASE   -
                                (GIT: $679e74b$)
                          ($2025-06-10 18:02:51 +0200$)


 With contributions from (in alphabetic order):
[Max-Planck-Institut fuer Kohlenforschung]                               
  Daniel Aravena         : Magnetic Suceptibility                        
  Michael Atanasov       : Ab Initio Ligand Field Theory (pilot matlab implementation)
  Alexander A. Auer      : GIAO ZORA, VPT2 properties, NMR spectrum      
  Ute Becker             : All parallelization in ORCA, NUMFREQ, NUMCALC 
  Giovanni Bistoni       : ED, misc. LED, open-shell LED, HFLD           
  Dmytro Bykov           : pre 5.0 version of the SCF Hessian            
  Marcos Casanova-Páez   : Triplet and SCS-CIS(D). UHF-(DLPNO)-IP/EA/STEOM-CCSD. UHF-CVS-IP/STEOM-CCSD   
  Vijay G. Chilkuri      : MRCI spin determinant printing, contributions to CSF-ICE 
  Pauline Colinet        : FMM embedding                                 
  Dipayan Datta          : RHF DLPNO-CCSD density                        
  Achintya Kumar Dutta   : EOM-CC, STEOM-CC                              
  Nicolas Foglia         : Exact transition moments, OPA infrastructure, MCD improvements    
  Dmitry Ganyushin       : Spin-Orbit,Spin-Spin,Magnetic field MRCI      
  Miquel Garcia-Rates    : C-PCM and meta-GGA Hessian, CCSD/C-PCM, Gaussian charge scheme 
  Tiago L. C. Gouveia    : GS-ROHF, GS-ROCIS                             
  Yang Guo               : DLPNO-NEVPT2, F12-NEVPT2, CIM, IAO-localization        
  Andreas Hansen         : Spin unrestricted coupled pair/coupled cluster methods 
  Ingolf Harden          : AUTO-CI MPn and infrastructure                
  Benjamin Helmich-Paris : MC-RPA, TRAH-(SCF,CASSCF), AVAS, COSX integrals, SCF dyn. polar., MC-PDFT, srDFT 
  Lee Huntington         : MR-EOM, pCC                                   
  Robert Izsak           : Overlap fitted RIJCOSX, COSX-SCS-MP3, EOM     
  Riya Kayal             : Wick's Theorem for AUTO-CI, AUTO-CI UHF-CCSDT 
  Emily Kempfer          : AUTO-CI RHF CISDT and CCSDT, approximate NEVPT4
  Christian Kollmar      : KDIIS, OOCD, Brueckner-CCSD(T), CCSD density, CASPT2, CASPT2-K, improved NEVPT2 
  Axel Koslowski         : Symmetry handling                             
  Simone Kossmann        : meta-GGA functionals, TD-DFT gradient, OOMP2, (MP2 Hessian; deprecated post 5.0) 
  Lucas Lang             : DCDCAS, Hyperfine gauge corrections, ICE-SOC+SSC
  Marvin Lechner         : AUTO-CI (C++ implementation), FIC-MRCC        
  Spencer Leger          : CASSCF response                               
  Dagmar Lenk            : GEPOL surface, SMD, ORCA-2-JSON               
  Dimitrios Liakos       : Extrapolation schemes; Compound Job, Property file
  Dimitrios Manganas     : Further ROCIS development; embedding schemes. LFT, Crystal Embedding 
  Dimitrios Pantazis     : SARC Basis sets                               
  Anastasios Papadopoulos: AUTO-CI, single reference methods and gradients 
  Taras Petrenko         : pre 6.0 DFT Hessian and TD-DFT gradient,  ECA, NRVS 
  Petra Pikulova         : Analytic Raman intensities                    
  Peter Pinski           : DLPNO-MP2, DLPNO-MP2 Gradient                 
  Shashank Vittal Rao    : ES-AILFT, MagRelax                            
  Christoph Reimann      : Effective Core Potentials                     
  Marius Retegan         : Local ZFS, SOC                                
  Christoph Riplinger    : Optimizer, TS searches, QM/MM, DLPNO-CCSD(T), (RO)-DLPNO pert. Triples 
  Michael Roemelt        : Original ROCIS implementation, recursive CI coupling coefficients
  Masaaki Saitow         : Open-shell DLPNO-CCSD energy and density      
  Barbara Sandhoefer     : DKH picture change effects                    
  Yorick L. A. Schmerwitz: GMF and freeze-and-release deltaSCF, NEB S-IDPP initial path                    
  Kantharuban Sivalingam : CASSCF convergence/infrastructure, NEVPT2, NEVPT3, NEVPT4(SD), FIC-MRCI and CEPA variants
  Bernardo de Souza      : ESD, SOC TD-DFT                               
  Georgi L. Stoychev     : AutoAux, RI-MP2 NMR, DLPNO-MP2 response, X2C  
  Van Anh Tran           : RI-MP2 g-tensors                              
  Willem Van den Heuvel  : Paramagnetic NMR                              
  Zikuan Wang            : NOTCH, Electric field optimization            
  Frank Wennmohs         : Technical directorship and infrastructure     
  Hang Xu                : AUTO-CI-Response properties                   
                                                                         
[FACCTs GmbH]                                                            
  Markus Bursch, Nicolas Foglia, Miquel Garcia-Rates, Ingolf Harden, Hagen Neugebauer, Anastasios Papadopoulos, 
  Christoph Riplinger, Bernardo de Souza, Georgi L. Stoychev                                                    
                                                                 
  APM, various basis sets, CI-OPT, improved COSX, DLPNO-Multilevel,           
  DOCKER, DRACO, updates on ESD, Fragmentator, GOAT, IRC, LR-CPCM, L-BFGS, MBIS, meta-GGA TD-DFT gradient, ML-optimized integration grids, 
  MM, NACMEs, nearIR, NEB, NEB-TS, NL-DFT gradient (VV10), 2- and 3-layer-ONIOM, interface openCOSMO-RS, QMMM,   
  Crystal-QMMM, RESP, rigid body optimization, SF, symmetry and pop. for TD-DFT, various functionals, SOLVATOR                                   
                                                                         
[Other institutions]                                                     
  V. Asgeirsson          : NEB                                           
  Christoph Bannwarth    : sTDA-DFT, sTD-DFT, PBEh-3c, B97-3c, D3        
  Giovanni Bistoni       : ETS/NOCV, ADLD/ADEX, COVALED                  
  Martin Brehm           : Molecular dynamics                            
  Ronald Cardenas        : ETS/NOCV                                      
  Martina Colucci        : COVALED                                       
  Sebastian Ehlert       : rSCAN, r2SCAN, r2SCAN-3c, D4, dhf basis sets  
  Marvin Friede          : D4 for Fr, Ra, Ac-Lr                          
  Lars Goerigk           : TD-DFT with DH, B97 family of functionals     
  Stefan Grimme          : VdW corrections, initial TS optimization, DFT functionals, gCP, sTDA/sTD-DF 
  Waldemar Hujo          : DFT-NL                                        
  H. Jonsson             : NEB                                           
  Holger Kruse           : gCP                                           
  Marcel Mueller         : wB97X-3c, vDZP basis set                      
  Hagen Neugebauer       : wr2SCAN, Native XTB                           
  Gianluca Regni         : ADLD/ADEX                                     
  Tobias Risthaus        : pre 6.0 range-separated hybrid DFT and stability analysis
  Lukas Wittmann         : regularized MP2, r2SCAN double-hybrids, wr2SCAN        
                                                                         
We gratefully acknowledge several colleagues who have allowed us to      
interface, adapt or use parts of their codes:                            
  Ed Valeev, F. Pavosevic, A. Kumar             : LibInt (2-el integral package), F12 methods 
  Garnet Chan, S. Sharma, J. Yang, R. Olivares  : DMRG                   
  Ulf Ekstrom                                   : XCFun DFT Library      
  Mihaly Kallay                                 : mrcc  (arbitrary order and MRCC methods)
  Frank Weinhold                                : gennbo (NPA and NBO analysis)           
  Simon Mueller                                 : openCOSMO-RS                            
  Christopher J. Cramer and Donald G. Truhlar   : smd solvation model                     
  S Lehtola, MJT Oliveira, MAL Marques          : LibXC Library                           
  Liviu Ungur et al                             : ANISO software                          


 Your calculation uses the libint2 library for the computation of 2-el integrals
 For citations please refer to: http://libint.valeyev.net

 Your ORCA version has been built with support for libXC version: 7.0.0
 For citations please refer to: https://libxc.gitlab.io

 This ORCA versions uses:
   CBLAS   interface :  Fast vector & matrix operations
   LAPACKE interface :  Fast linear algebra routines
   SCALAPACK package :  Parallel linear algebra routines
   Shared memory     :  Shared parallel matrices
   BLAS/LAPACK       :  OpenBLAS 0.3.29  USE64BITINT DYNAMIC_ARCH NO_AFFINITY Haswell SINGLE_THREADED
        Core in use  :  Haswell
   Copyright (c) 2011-2014, The OpenBLAS Project


  ***********************************
  * Starting time: Fri Aug 29 13:49:36 2025
  * Host name:     chemlab03
  * Process ID:    59320
  * Working dir.:  /home/vivek/mm-lab/6
  ***********************************



***************************************
The coordinates will be read from file: ethyl-radical-geometry.xyz
***************************************


================================================================================

----- Orbital basis set information -----
Your calculation utilizes the basis: 6-31G**
   H-He, Li-Ne : W. J. Hehre, R. Ditchfield and J.A. Pople, J. Chem. Phys. 56, 2257 (1972).
                 Note: He and Ne are unpublished basis sets taken from the Gaussian program.
                 Note: Li and B from J. D. Dill and J. A. Pople, J. Chem. Phys. 62, 2921 (1975).
   Na - Ar     : M. M. Francl, W. J. Pietro, W. J. Hehre, J. S. Binkley, M. S. Gordon, 
                 D. J. DeFrees and J. A. Pople, J. Chem. Phys. 77, 3654 (1982).
   K - Zn      : V. A. Rassolov, J. A. Pople, M. A. Ratner, and T. L. Windus, J. Chem. Phys. 109, 1223 (1998).

================================================================================
                                        WARNINGS
                       Please study these warnings very carefully!
================================================================================


WARNING: your system is open-shell and RHF/RKS was chosen
  ===> : WILL SWITCH to UHF/UKS


WARNING: The frozen-core approximation for MP2-gradient calculations is turned on by default.

WARNING: Geometry Optimization
  ===> : Switching off AutoStart
         For restart on a previous wavefunction, please use MOREAD

WARNING: Post HF methods need fully converged wavefunctions
  ===> : Setting SCFConvForced true
         You can overwrite this default with %scf ConvForced false 


================================================================================
                                       INPUT FILE
================================================================================
NAME = ethyl-radical.inp
|  1> ! MP2 6-31G** opt numfreq
|  2> 
|  3> * xyzfile 0 2 ethyl-radical-geometry.xyz
|  4> 
|  5>                          ****END OF INPUT****
================================================================================

                       *****************************
                       * Geometry Optimization Run *
                       *****************************

Geometry optimization settings:
Update method            Update   .... BFGS
Choice of coordinates    CoordSys .... (2022) Redundant Internals
Initial Hessian          InHess   .... Almloef's Model
Max. no of cycles        MaxIter  .... 50

Convergence Tolerances:
Energy Change            TolE     ....  5.0000e-06 Eh
Max. Gradient            TolMAXG  ....  3.0000e-04 Eh/bohr
RMS Gradient             TolRMSG  ....  1.0000e-04 Eh/bohr
Max. Displacement        TolMAXD  ....  4.0000e-03 bohr
RMS Displacement         TolRMSD  ....  2.0000e-03 bohr
Strict Convergence                .... False

------------------------------------------------------------------------------
                        ORCA OPTIMIZATION COORDINATE SETUP
------------------------------------------------------------------------------

The optimization will be done in redundant internal coordinates (2022)
Making redundant internal coordinates   ...  (2022 redundants) done
Evaluating the initial hessian          ...  (Almloef) done
Evaluating the coordinates              ...  done
Calculating the B-matrix                .... done
Calculating the G-matrix                .... done
The number of degrees of freedom        ....   20

    -----------------------------------------------------------------
                    Redundant Internal Coordinates


    -----------------------------------------------------------------
         Definition                    Initial Value    Approx d2E/dq
    -----------------------------------------------------------------
      1. B(C   1,C   0)                  1.4820         0.445630   
      2. B(H   2,C   0)                  1.0930         0.356176   
      3. B(H   3,C   0)                  1.0930         0.356145   
      4. B(H   4,C   0)                  1.0930         0.356128   
      5. B(H   5,C   1)                  1.0984         0.349099   
      6. B(H   6,C   1)                  1.0984         0.349171   
      7. A(C   1,C   0,H   3)          111.2016         0.333291   
      8. A(C   1,C   0,H   4)          111.2050         0.333289   
      9. A(C   1,C   0,H   2)          111.2016         0.333296   
     10. A(H   2,C   0,H   4)          107.6853         0.289835   
     11. A(H   3,C   0,H   4)          107.6870         0.289831   
     12. A(H   2,C   0,H   3)          107.6844         0.289837   
     13. A(C   0,C   1,H   5)          111.4051         0.332189   
     14. A(H   5,C   1,H   6)          107.4660         0.288034   
     15. A(C   0,C   1,H   6)          111.4051         0.332200   
     16. D(H   5,C   1,C   0,H   3)   -179.9995         0.014648   
     17. D(H   5,C   1,C   0,H   4)    -59.9969         0.014648   
     18. D(H   6,C   1,C   0,H   2)    179.9983         0.014648   
     19. D(H   6,C   1,C   0,H   3)    -60.0046         0.014648   
     20. D(H   5,C   1,C   0,H   2)     60.0035         0.014648   
    -----------------------------------------------------------------

Number of atoms                         .... 7
Number of degrees of freedom            .... 20


         *************************************************************
         *                GEOMETRY OPTIMIZATION CYCLE   1            *
         *************************************************************
---------------------------------
CARTESIAN COORDINATES (ANGSTROEM)
---------------------------------
  C     -3.992131    1.774914   -0.000013
  C     -2.721320    1.012462   -0.000009
  H     -4.297033    2.035034    1.016837
  H     -3.895032    2.705076   -0.565728
  H     -4.801234    1.194796   -0.451130
  H     -2.815183    0.076808    0.567727
  H     -2.411761    0.749239   -1.020473

----------------------------
CARTESIAN COORDINATES (A.U.)
----------------------------
  NO LB      ZA    FRAG     MASS         X           Y           Z
   0 C     6.0000    0    12.011   -7.544034    3.354101   -0.000025
   1 C     6.0000    0    12.011   -5.142550    1.913276   -0.000017
   2 H     1.0000    0     1.008   -8.120216    3.845657    1.921543
   3 H     1.0000    0     1.008   -7.360544    5.111853   -1.069071
   4 H     1.0000    0     1.008   -9.073017    2.257837   -0.852512
   5 H     1.0000    0     1.008   -5.319925    0.145146    1.072849
   6 H     1.0000    0     1.008   -4.557568    1.415857   -1.928414

--------------------------------
INTERNAL COORDINATES (ANGSTROEM)
--------------------------------
 C      0   0   0     0.000000000000     0.00000000     0.00000000
 C      1   0   0     1.481989760437     0.00000000     0.00000000
 H      1   2   0     1.092982875668   111.20159751     0.00000000
 H      1   2   3     1.093006415018   111.20164624   119.99700860
 H      1   2   3     1.093019261597   111.20498946   239.99959899
 H      2   1   3     1.098445645529   111.40506130    60.00350911
 H      2   1   3     1.098389683813   111.40508661   179.99834146

---------------------------
INTERNAL COORDINATES (A.U.)
---------------------------
 C      0   0   0     0.000000000000     0.00000000     0.00000000
 C      1   0   0     2.800554780502     0.00000000     0.00000000
 H      1   2   0     2.065438304079   111.20159751     0.00000000
 H      1   2   3     2.065482787003   111.20164624   119.99700860
 H      1   2   3     2.065507063519   111.20498946   239.99959899
 H      2   1   3     2.075761443048   111.40506130    60.00350911
 H      2   1   3     2.075655690730   111.40508661   179.99834146

---------------------
BASIS SET INFORMATION
---------------------
There are 2 groups of distinct atoms

 Group   1 Type C   : 10s4p1d contracted to 3s2p1d pattern {631/31/1}
 Group   2 Type H   : 4s1p contracted to 2s1p pattern {31/1}

Atom   0C    basis set group =>   1
Atom   1C    basis set group =>   1
Atom   2H    basis set group =>   2
Atom   3H    basis set group =>   2
Atom   4H    basis set group =>   2
Atom   5H    basis set group =>   2
Atom   6H    basis set group =>   2
------------------------------------------------------------------------------
                             ORCA STARTUP CALCULATIONS
------------------------------------------------------------------------------
------------------------------------------------------------------------------
                   ___                                                        
                  /   \      - P O W E R E D   B Y -                         
                 /     \                                                     
                 |  |  |   _    _      __       _____    __    __             
                 |  |  |  | |  | |    /  \     |  _  \  |  |  /  |          
                  \  \/   | |  | |   /    \    | | | |  |  | /  /          
                 / \  \   | |__| |  /  /\  \   | |_| |  |  |/  /          
                |  |  |   |  __  | /  /__\  \  |    /   |      \           
                |  |  |   | |  | | |   __   |  |    \   |  |\   \          
                \     /   | |  | | |  |  |  |  | |\  \  |  | \   \       
                 \___/    |_|  |_| |__|  |__|  |_| \__\ |__|  \__/        
                                                                              
                      - O R C A' S   B I G   F R I E N D -                    
                                      &                                       
                       - I N T E G R A L  F E E D E R -                       
                                                                              
 v1 FN, 2020, v2 2021, v3 2022-2024                                           
------------------------------------------------------------------------------


----------------------
SHARK INTEGRAL PACKAGE
----------------------

Number of atoms                             ...      7
Number of basis functions                   ...     53
Number of shells                            ...     27
Maximum angular momentum                    ...      2
Integral batch strategy                     ... SHARK/LIBINT Hybrid
RI-J (if used) integral strategy            ... SPLIT-RIJ (Revised 2003 algorithm where possible)
Printlevel                                  ...      1
Contraction scheme used                     ... SEGMENTED contraction
Prescreening option                         ... SCHWARTZ
   Thresh                                   ... 2.500e-11
   Tcut                                     ... 2.500e-12
   Tpresel                                  ... 2.500e-12 
Coulomb Range Separation                    ... NOT USED
Exchange Range Separation                   ... NOT USED
Multipole approximations                    ... NOT USED
Finite Nucleus Model                        ... NOT USED
CABS basis                                  ... NOT available
Auxiliary Coulomb fitting basis             ... NOT available
Auxiliary J/K fitting basis                 ... NOT available
Auxiliary Correlation fitting basis         ... NOT available
Auxiliary 'external' fitting basis          ... NOT available

Checking pre-screening integrals            ... done (  0.0 sec) Dimension = 27
   => SHARK Basis and OBASIS are compatible. Storing Pre-screening
Shell pair information
Shell pair cut-off parameter TPreSel        ...   2.5e-12
Total number of shell pairs                 ...       378
Shell pairs after pre-screening             ...       378
Total number of primitive shell pairs       ...      1597
Primitive shell pairs kept                  ...      1403
          la=0 lb=0:    136 shell pairs
          la=1 lb=0:    144 shell pairs
          la=1 lb=1:     45 shell pairs
          la=2 lb=0:     32 shell pairs
          la=2 lb=1:     18 shell pairs
          la=2 lb=2:      3 shell pairs

Checking whether 4 symmetric matrices of dimension 53 fit in memory
:Max Core in MB      =   4096.00
 MB in use           =      1.70
 MB left             =   4094.30
 MB needed           =      0.04
 Data fit in memory  = YES
Calculating Nuclear repulsion               ... done (  0.0 sec) ENN=     37.165479470158 Eh

Diagonalization of the overlap matrix:
Smallest eigenvalue                        ... 8.787e-03
Time for diagonalization                   ...    0.000 sec
Threshold for overlap eigenvalues          ... 1.000e-07
Number of eigenvalues below threshold      ... 0
Time for construction of square roots      ...    0.000 sec
Total time needed                          ...    0.000 sec

-------------------
DFT GRID GENERATION
-------------------

General Integration Accuracy     IntAcc      ... 4.388
Radial Grid Type                 RadialGrid  ... OptM3 with GC (2021)
Angular Grid (max. ang.)         AngularGrid ... 4 (Lebedev-302)
Angular grid pruning method      GridPruning ... 4 (adaptive)
Weight generation scheme         WeightScheme... mBecke (2022)
Basis function cutoff            BFCut       ... 1.0000e-11
Integration weight cutoff        WCut        ... 1.0000e-14
Partially contracted basis set               ... off
Rotationally invariant grid construction     ... off
Angular grids for H and He will be reduced by one unit

Total number of grid points                  ...    28524
Total number of batches                      ...      450
Average number of points per batch           ...       63
Average number of grid points per atom       ...     4075
Grids setup in   0.1 sec
Initializing property integral containers    ... done (  0.0 sec)

SHARK setup successfully completed in   0.1 seconds

Maximum memory used throughout the entire STARTUP-calculation: 10.4 MB
-------------------------------------------------------------------------------
                                 ORCA GUESS
                   Start orbitals & Density for SCF / CASSCF
-------------------------------------------------------------------------------

------------
SCF SETTINGS
------------
Hamiltonian:
 Ab initio Hamiltonian  Method          .... Hartree-Fock(GTOs)


General Settings:
 Integral files         IntName         .... ethyl-radical
 Hartree-Fock type      HFTyp           .... UHF
 Total Charge           Charge          ....    0
 Multiplicity           Mult            ....    2
 Number of Electrons    NEL             ....   17
 Basis Dimension        Dim             ....   53
 Nuclear Repulsion      ENuc            ....     37.1654794702 Eh

Convergence Acceleration:
 AO-DIIS                CNVDIIS         .... on
   Start iteration      DIISMaxIt       ....    12
   Startup error        DIISStart       ....  0.200000
   # of expansion vecs  DIISMaxEq       ....     5
   Bias factor          DIISBfac        ....   1.050
   Max. coefficient     DIISMaxC        ....  10.000
 MO-DIIS                CNVKDIIS        .... off
 Trust-Rad. Augm. Hess. CNVTRAH         .... auto
   Auto Start mean grad. ratio tolernc. ....  1.125000
   Auto Start start iteration           ....    50
   Auto Start num. interpolation iter.  ....    10
   Max. Number of Micro iterations      ....    24
   Max. Number of Macro iterations      .... Maxiter - #DIIS iter
   Number of Davidson start vectors     ....     2
   Converg. threshold    (grad. norm)   ....   1.000e-05
   Grad. Scal. Fac. for Micro threshold ....   0.100
   Minimum threshold for Micro iter.    ....   1.000e-02
   NR start threshold (gradient norm)   ....   1.000e-04
   Initial trust radius                 ....   0.400
   Minimum AH scaling param. (alpha)    ....   1.000
   Maximum AH scaling param. (alpha)    .... 1000.000
   Quad. conv. algorithm                .... NR
   White noise on init. David. guess    .... on
   Maximum white noise                  ....   0.010
   Pseudo random numbers                .... off
   Inactive MOs                         .... canonical
   Orbital update algorithm             .... Taylor
   Preconditioner                       .... Diag
   Full preconditioner red. dimension   ....   250
 SOSCF                 CNVSOSCF           .... on
   Start iteration     SOSCFMaxIt         ....   150
   Startup grad/error  SOSCFStart         ....  0.003300
   Hessian update      SOSCFHessUp        .... L-BFGS
   Autom. constraints  SOSCFAutoConstrain .... off
 Level Shifting         CNVShift        .... on
   Level shift para.    LevelShift      ....    0.2500
   Turn off err/grad.   ShiftErr        ....    0.0010
 Zerner damping         CNVZerner       .... off
 Static damping         CNVDamp         .... on
   Fraction old density DampFac         ....    0.7000
   Max. Damping (<1)    DampMax         ....    0.9800
   Min. Damping (>=0)   DampMin         ....    0.0000
   Turn off err/grad.   DampErr         ....    0.1000

SCF Procedure:
 Maximum # iterations   MaxIter         ....   125
 SCF integral mode      SCFMode         .... Direct
   Integral package                     .... SHARK and LIBINT hybrid scheme
 Reset frequency        DirectResetFreq ....    20
 Integral Threshold     Thresh          ....  2.500e-11 Eh
 Primitive CutOff       TCut            ....  2.500e-12 Eh

Convergence Tolerance:
 Convergence Check Mode ConvCheckMode   .... Total+1el-Energy
 Convergence forced     ConvForced      .... 1
 Energy Change          TolE            ....  1.000e-08 Eh
 1-El. energy change                    ....  1.000e-05 Eh
 Orbital Gradient       TolG            ....  1.000e-05
 Orbital Rotation angle TolX            ....  1.000e-05
 DIIS Error             TolErr          ....  5.000e-07

------------------------------
INITIAL GUESS: MODEL POTENTIAL
------------------------------
Loading Hartree-Fock densities                     ... done
Calculating cut-offs                               ... done
Initializing the effective Hamiltonian             ... done
Setting up the integral package (SHARK)            ... done
Starting the Coulomb interaction                   ... done (   0.0 sec)
Making the grid                                    ... done (   0.0 sec)
Mapping shells                                     ... done
Starting the XC term evaluation                    ... done (   0.0 sec)
Transforming the Hamiltonian                       ... done (   0.0 sec)
Diagonalizing the Hamiltonian                      ... done (   0.0 sec)
Back transforming the eigenvectors                 ... done (   0.0 sec)
Now organizing SCF variables                       ... done
                      ------------------
                      INITIAL GUESS DONE (   0.0 sec)
                      ------------------
             **** ENERGY FILE WAS UPDATED (ethyl-radical.en.tmp) ****
Finished Guess after   0.0 sec
Maximum memory used throughout the entire GUESS-calculation: 4.1 MB

-------------------------------------------------------------------------------------------
                                      ORCA LEAN-SCF
                              memory conserving SCF solver
-------------------------------------------------------------------------------------------

----------------------------------------D-I-I-S--------------------------------------------
Iteration    Energy (Eh)           Delta-E    RMSDP     MaxDP     DIISErr   Damp  Time(sec)
-------------------------------------------------------------------------------------------
               ***  Starting incremental Fock matrix formation  ***
    1    -78.4681831783755115     0.00e+00  2.04e-03  2.81e-02  1.04e-01  0.700   0.0
    2    -78.5113705310546095    -4.32e-02  1.64e-03  2.15e-02  6.87e-02  0.700   0.0
                               ***Turning on AO-DIIS***
    3    -78.5381803215366006    -2.68e-02  9.42e-04  1.13e-02  4.16e-02  0.700   0.0
    4    -78.5553918954759354    -1.72e-02  2.18e-03  2.47e-02  2.84e-02  0.000   0.0
    5    -78.5944247083629648    -3.90e-02  3.65e-04  4.59e-03  4.09e-03  0.000   0.0
                              *** Initializing SOSCF ***
---------------------------------------S-O-S-C-F--------------------------------------
Iteration    Energy (Eh)           Delta-E    RMSDP     MaxDP     MaxGrad    Time(sec)
--------------------------------------------------------------------------------------
    6    -78.5948583656326889    -4.34e-04  2.62e-04  3.31e-03  2.30e-03     0.0
               *** Restarting incremental Fock matrix formation ***
    7    -78.5950199181382914    -1.62e-04  1.17e-04  1.48e-03  1.49e-03     0.0
    8    -78.5950533772886786    -3.35e-05  1.69e-04  2.08e-03  7.23e-04     0.0
    9    -78.5950739647220757    -2.06e-05  2.11e-05  2.28e-04  3.72e-04     0.0
   10    -78.5950748720434262    -9.07e-07  2.18e-05  3.07e-04  2.03e-04     0.0
   11    -78.5950752372523596    -3.65e-07  2.70e-06  2.83e-05  3.67e-05     0.0
   12    -78.5950752541796192    -1.69e-08  1.95e-06  1.58e-05  1.54e-05     0.0
   13    -78.5950752585183920    -4.34e-09  4.94e-07  4.76e-06  4.45e-06     0.0
                 **** Energy Check signals convergence ****

               *****************************************************
               *                     SUCCESS                       *
               *           SCF CONVERGED AFTER  13 CYCLES          *
               *****************************************************

             **** ENERGY FILE WAS UPDATED (ethyl-radical.en.tmp) ****

----------------
TOTAL SCF ENERGY
----------------

Total Energy       :        -78.59507525892954 Eh           -2138.68073 eV

Components:
Nuclear Repulsion  :         37.16547947015830 Eh            1011.32411 eV
Electronic Energy  :       -115.76055472908784 Eh           -3150.00484 eV
One Electron Energy:       -178.24172883401522 Eh           -4850.20402 eV
Two Electron Energy:         62.48117410492738 Eh            1700.19918 eV

Virial components:
Potential Energy   :       -157.20435579903813 Eh           -4277.74800 eV
Kinetic Energy     :         78.60928054010859 Eh            2139.06727 eV
Virial Ratio       :          1.99981929256849

---------------
SCF CONVERGENCE
---------------

  Last Energy change         ...    4.3388e-09  Tolerance :   1.0000e-08
  Last MAX-Density change    ...    4.7645e-06  Tolerance :   1.0000e-07
  Last RMS-Density change    ...    4.9367e-07  Tolerance :   5.0000e-09
  Last DIIS Error            ...    2.2997e-03  Tolerance :   5.0000e-07
  Last Orbital Gradient      ...    4.4497e-06  Tolerance :   1.0000e-05
  Last Orbital Rotation      ...    9.2332e-06  Tolerance :   1.0000e-05


----------------------
UHF SPIN CONTAMINATION
----------------------

Expectation value of <S**2>     :     0.758321
Ideal value S*(S+1) for S=0.5   :     0.750000
Deviation                       :     0.008321

----------------
ORBITAL ENERGIES
----------------
                 SPIN UP ORBITALS
  NO   OCC          E(Eh)            E(eV) 
   0   1.0000     -11.237896      -305.7987 
   1   1.0000     -11.215205      -305.1812 
   2   1.0000      -1.036377       -28.2013 
   3   1.0000      -0.834371       -22.7044 
   4   1.0000      -0.609368       -16.5818 
   5   1.0000      -0.587833       -15.9957 
   6   1.0000      -0.525710       -14.3053 
   7   1.0000      -0.487771       -13.2729 
   8   1.0000      -0.387674       -10.5492 
   9   0.0000       0.245718         6.6863 
  10   0.0000       0.299333         8.1453 
  11   0.0000       0.307155         8.3581 
  12   0.0000       0.323325         8.7981 
  13   0.0000       0.333928         9.0867 
  14   0.0000       0.419473        11.4144 
  15   0.0000       0.690825        18.7983 
  16   0.0000       0.743335        20.2272 
  17   0.0000       0.751710        20.4551 
  18   0.0000       0.803564        21.8661 
  19   0.0000       0.830506        22.5992 

                 SPIN DOWN ORBITALS
  NO   OCC          E(Eh)            E(eV) 
   0   1.0000     -11.217213      -305.2359 
   1   1.0000     -11.211758      -305.0875 
   2   1.0000      -1.001438       -27.2505 
   3   1.0000      -0.786058       -21.3897 
   4   1.0000      -0.597558       -16.2604 
   5   1.0000      -0.553520       -15.0620 
   6   1.0000      -0.511212       -13.9108 
   7   1.0000      -0.478417       -13.0184 
   8   0.0000       0.145336         3.9548 
   9   0.0000       0.252506         6.8710 
  10   0.0000       0.309215         8.4142 
  11   0.0000       0.312293         8.4979 
  12   0.0000       0.331236         9.0134 
  13   0.0000       0.351441         9.5632 
  14   0.0000       0.441028        12.0010 
  15   0.0000       0.700732        19.0679 
  16   0.0000       0.748380        20.3645 
  17   0.0000       0.798036        21.7157 
  18   0.0000       0.843475        22.9521 
*Only the first 10 virtual orbitals were printed.

                    ********************************
                    * MULLIKEN POPULATION ANALYSIS *
                    ********************************

--------------------------------------------
MULLIKEN ATOMIC CHARGES AND SPIN POPULATIONS
--------------------------------------------
   0 C :   -0.355192   -0.123440
   1 C :   -0.206058    1.175643
   2 H :    0.117376    0.010951
   3 H :    0.117370    0.010951
   4 H :    0.121255    0.059128
   5 H :    0.102618   -0.066619
   6 H :    0.102632   -0.066614
Sum of atomic charges         :   -0.0000000
Sum of atomic spin populations:    1.0000000

-----------------------------------------------------
MULLIKEN REDUCED ORBITAL CHARGES AND SPIN POPULATIONS
-----------------------------------------------------
CHARGE
  0 C s       :     3.260583  s :     3.260583
      pz      :     1.058137  p :     3.051223
      px      :     0.967601
      py      :     1.025485
      dz2     :     0.008951  d :     0.043386
      dxz     :     0.006591
      dyz     :     0.009073
      dx2y2   :     0.008327
      dxy     :     0.010445

  1 C s       :     3.302123  s :     3.302123
      pz      :     0.998777  p :     2.867996
      px      :     0.913483
      py      :     0.955737
      dz2     :     0.009297  d :     0.035938
      dxz     :     0.003696
      dyz     :     0.008017
      dx2y2   :     0.008297
      dxy     :     0.006632

  2 H s       :     0.869999  s :     0.869999
      pz      :     0.008046  p :     0.012626
      px      :     0.002331
      py      :     0.002249

  3 H s       :     0.870005  s :     0.870005
      pz      :     0.003715  p :     0.012625
      px      :     0.001818
      py      :     0.007093

  4 H s       :     0.865926  s :     0.865926
      pz      :     0.003115  p :     0.012820
      px      :     0.005933
      py      :     0.003771

  5 H s       :     0.884269  s :     0.884269
      pz      :     0.003708  p :     0.013114
      px      :     0.001992
      py      :     0.007414

  6 H s       :     0.884254  s :     0.884254
      pz      :     0.008217  p :     0.013115
      px      :     0.002437
      py      :     0.002460


SPIN
  0 C s       :    -0.028442  s :    -0.028442
      pz      :    -0.015079  p :    -0.100904
      px      :    -0.051226
      py      :    -0.034600
      dz2     :     0.000328  d :     0.005906
      dxz     :     0.001408
      dyz     :     0.000121
      dx2y2   :     0.002302
      dxy     :     0.001747

  1 C s       :     0.207127  s :     0.207127
      pz      :     0.205757  p :     0.973746
      px      :     0.460515
      py      :     0.307474
      dz2     :    -0.001368  d :    -0.005230
      dxz     :    -0.000356
      dyz     :    -0.000943
      dx2y2   :    -0.001180
      dxy     :    -0.001383

  2 H s       :     0.011119  s :     0.011119
      pz      :    -0.000050  p :    -0.000168
      px      :    -0.000104
      py      :    -0.000014

  3 H s       :     0.011119  s :     0.011119
      pz      :     0.000012  p :    -0.000168
      px      :    -0.000136
      py      :    -0.000044

  4 H s       :     0.059412  s :     0.059412
      pz      :    -0.000000  p :    -0.000284
      px      :    -0.000530
      py      :     0.000246

  5 H s       :    -0.068644  s :    -0.068644
      pz      :     0.001188  p :     0.002025
      px      :     0.000763
      py      :     0.000074

  6 H s       :    -0.068640  s :    -0.068640
      pz      :     0.000187  p :     0.002025
      px      :     0.001517
      py      :     0.000322



                     *******************************
                     * LOEWDIN POPULATION ANALYSIS *
                     *******************************

-------------------------------------------
LOEWDIN ATOMIC CHARGES AND SPIN POPULATIONS
-------------------------------------------
   0 C :   -0.203391   -0.035650
   1 C :   -0.110829    1.014897
   2 H :    0.066426    0.007532
   3 H :    0.066428    0.007533
   4 H :    0.072032    0.047251
   5 H :    0.054669   -0.020785
   6 H :    0.054666   -0.020778

----------------------------------------------------
LOEWDIN REDUCED ORBITAL CHARGES AND SPIN POPULATIONS
----------------------------------------------------
CHARGE
  0 C s       :     2.906420  s :     2.906420
      pz      :     1.085918  p :     3.217538
      px      :     1.054407
      py      :     1.077212
      dz2     :     0.015312  d :     0.079434
      dxz     :     0.012337
      dyz     :     0.015144
      dx2y2   :     0.016649
      dxy     :     0.019992

  1 C s       :     3.002955  s :     3.002955
      pz      :     1.047552  p :     3.044555
      px      :     0.989148
      py      :     1.007855
      dz2     :     0.015260  d :     0.063320
      dxz     :     0.007407
      dyz     :     0.013450
      dx2y2   :     0.014907
      dxy     :     0.012296

  2 H s       :     0.894784  s :     0.894784
      pz      :     0.023517  p :     0.038790
      px      :     0.007571
      py      :     0.007702

  3 H s       :     0.894785  s :     0.894785
      pz      :     0.011724  p :     0.038787
      px      :     0.006276
      py      :     0.020787

  4 H s       :     0.888564  s :     0.888564
      pz      :     0.010006  p :     0.039404
      px      :     0.017568
      py      :     0.011829

  5 H s       :     0.904209  s :     0.904209
      pz      :     0.011895  p :     0.041123
      px      :     0.007421
      py      :     0.021807

  6 H s       :     0.904205  s :     0.904205
      pz      :     0.024276  p :     0.041129
      px      :     0.008756
      py      :     0.008097


SPIN
  0 C s       :    -0.008187  s :    -0.008187
      pz      :    -0.006630  p :    -0.041917
      px      :    -0.018714
      py      :    -0.016572
      dz2     :     0.000883  d :     0.014454
      dxz     :     0.003166
      dyz     :     0.000442
      dx2y2   :     0.005867
      dxy     :     0.004096

  1 C s       :     0.122154  s :     0.122154
      pz      :     0.175525  p :     0.899397
      px      :     0.443819
      py      :     0.280053
      dz2     :    -0.002169  d :    -0.006654
      dxz     :    -0.000093
      dyz     :    -0.001586
      dx2y2   :    -0.001600
      dxy     :    -0.001206

  2 H s       :     0.008312  s :     0.008312
      pz      :    -0.000283  p :    -0.000780
      px      :    -0.000330
      py      :    -0.000168

  3 H s       :     0.008313  s :     0.008313
      pz      :    -0.000161  p :    -0.000780
      px      :    -0.000352
      py      :    -0.000267

  4 H s       :     0.048802  s :     0.048802
      pz      :    -0.000246  p :    -0.001551
      px      :    -0.001174
      py      :    -0.000130

  5 H s       :    -0.031342  s :    -0.031342
      pz      :     0.003831  p :     0.010557
      px      :     0.003969
      py      :     0.002757

  6 H s       :    -0.031337  s :    -0.031337
      pz      :     0.002462  p :     0.010559
      px      :     0.005638
      py      :     0.002459



                      *****************************
                      * MAYER POPULATION ANALYSIS *
                      *****************************

  NA   - Mulliken gross atomic population
  ZA   - Total nuclear charge
  QA   - Mulliken gross atomic charge
  VA   - Mayer's total valence
  BVA  - Mayer's bonded valence
  FA   - Mayer's free valence

  ATOM       NA         ZA         QA         VA         BVA        FA
  0 C      6.3552     6.0000    -0.3552     3.8623     3.8553     0.0069
  1 C      6.2061     6.0000    -0.2061     3.8212     2.8880     0.9332
  2 H      0.8826     1.0000     0.1174     0.9489     0.9488     0.0001
  3 H      0.8826     1.0000     0.1174     0.9489     0.9488     0.0001
  4 H      0.8787     1.0000     0.1213     0.9471     0.9434     0.0037
  5 H      0.8974     1.0000     0.1026     0.9543     0.9491     0.0052
  6 H      0.8974     1.0000     0.1026     0.9543     0.9491     0.0052

  Mayer bond orders larger than 0.100000
B(  0-C ,  1-C ) :   0.9723 B(  0-C ,  2-H ) :   0.9746 B(  0-C ,  3-H ) :   0.9746 
B(  0-C ,  4-H ) :   0.9613 B(  1-C ,  5-H ) :   0.9695 B(  1-C ,  6-H ) :   0.9695 


-------
TIMINGS
-------

Total SCF time: 0 days 0 hours 0 min 0 sec 

Total time                  ....       0.449 sec
Sum of individual times     ....       0.416 sec  ( 92.5%)

SCF preparation             ....       0.012 sec  (  2.7%)
Fock matrix formation       ....       0.392 sec  ( 87.2%)
  Startup                   ....       0.000 sec  (  0.1% of F)
  Coulomb+Exchange Fock     ....       0.417 sec  (106.5% of F)
Diagonalization             ....       0.000 sec  (  0.0%)
Density matrix formation    ....       0.002 sec  (  0.4%)
Total Energy calculation    ....       0.001 sec  (  0.1%)
Population analysis         ....       0.001 sec  (  0.2%)
Orbital Transformation      ....       0.001 sec  (  0.3%)
Orbital Orthonormalization  ....       0.000 sec  (  0.0%)
DIIS solution               ....       0.004 sec  (  0.9%)
SOSCF solution              ....       0.003 sec  (  0.7%)
Finished LeanSCF after   0.5 sec

Maximum memory used throughout the entire LEANSCF-calculation: 7.7 MB

------------------------------------------------------------------------------
                                ORCA  MP2 
------------------------------------------------------------------------------

Freezing NCore=4 chemical core electrons
MP2 will be done in the AO integral direct mode
The Q1-step will be done using symmetric double matrices
Dimension of the basis                    ...   53
Memory devoted for MP2                    ... 4096 MB   
Memory needed for all in one shot         ...    5 MB
Number of MOs that can be treated together... 7077      
MP2 density construction                  ... relaxed
The MP2 gradient is requested => amplitudes will be stored on disk
Total number of MOs              ...    7
Number of MOs treated per batch  ...    7 
Number of batches necessary      ...    1 
OPERATORS   0/  0 PASS   0
OPERATORS   0/  1 PASS   0
Total number of MOs              ...    7
Number of MOs treated per batch  ...    6 
Number of batches necessary      ...    1 
OPERATORS   1/  0 PASS   0
OPERATORS   1/  1 PASS   0

Correlation energy components
 E2 and T2 for alpha/alpha pairs :     -0.032477780 Eh
 E2 and T2 for beta/beta   pairs :     -0.022937485 Eh
 E2 and T2 for alpha/beta  pairs :     -0.213043966 Eh

-----------------------------------------------
 MP2 CORRELATION ENERGY   :     -0.268459231 Eh
-----------------------------------------------


---------------------
MP2 DENSITY FORMATION
---------------------

Completing the external part of the density      ... done
Storing the unrelaxed density                    ... done

Calculating G(D)                                 ... done
Completing the Lagrangian                        ... done
Solving the Z-vector equations                   ... 
-------------------
SHARK CP-SCF DRIVER
-------------------

Dimension of the orbital basis          ...     53
Dimension of the CPSCF-problem          ...    756
Number of operators                     ...      2
Max. number of iterations               ...    128
Convergence Tolerance                   ... 1.0e-04
Number of perturbations                 ...      1
Perturbation type                       ... REAL

----------------------------
POPLE LINEAR EQUATION SOLVER
----------------------------

  ITERATION   0:   ||err||_max =   2.0283e-02 (   0.0 sec)
  ITERATION   1:   ||err||_max =   6.7652e-03 (   0.0 sec)
  ITERATION   2:   ||err||_max =   2.7357e-03 (   0.0 sec)
  ITERATION   3:   ||err||_max =   1.2928e-03 (   0.0 sec)
  ITERATION   4:   ||err||_max =   3.7555e-04 (   0.0 sec)
  ITERATION   5:   ||err||_max =   1.2982e-04 (   0.0 sec)
  ITERATION   6:   ||err||_max =   3.8148e-05 (   0.0 sec)
                                                 ... done
Finalizing the relaxed density                   ... done
Transforming P to the AO basis                   ... done
Storing the relaxed density                      ... done

------------------------------------
ENERGY WEIGHTED DENSITY FINALIZATION
------------------------------------

Gathering the parts of the W-matrix              ...                                                                                                           done
Forming the Z-density                            ... done
Transforming Z to the AO basis                   ... done
Calculating G(Z)                                 ... done
Finalizing the W-matrix                          ...                                                                                                           done
Transforming W to the AO basis and storing       ... done

                *********************************************
                * UNRELAXED MP2 DENSITY POPULATION ANALYSIS *
                *********************************************

------------------------------------------------------------------------------
                           ORCA POPULATION ANALYSIS
------------------------------------------------------------------------------
Input electron density              ... ethyl-radical.pmp2ur
Input spin density                  ... ethyl-radical.rmp2ur
BaseName (.gbw .S,...)              ... ethyl-radical

                    ********************************
                    * MULLIKEN POPULATION ANALYSIS *
                    ********************************

------------------------------------------
MULLIKEN ATOMIC CHARGES AND SPIN DENSITIES
------------------------------------------
   0 C :   -0.357739   -0.120452
   1 C :   -0.207784    1.170442
   2 H :    0.118296    0.010812
   3 H :    0.118290    0.010812
   4 H :    0.122287    0.058823
   5 H :    0.103318   -0.065221
   6 H :    0.103332   -0.065217
Sum of atomic charges       :   -0.0000000
Sum of atomic spin densities:    1.0000000

---------------------------------------------------
MULLIKEN REDUCED ORBITAL CHARGES AND SPIN DENSITIES
---------------------------------------------------
CHARGE
  0 C s       :     3.257570  s :     3.257570
      pz      :     1.054873  p :     3.041395
      px      :     0.964340
      py      :     1.022183
      dz2     :     0.011868  d :     0.058774
      dxz     :     0.009872
      dyz     :     0.012094
      dx2y2   :     0.011582
      dxy     :     0.013357
  1 C s       :     3.298584  s :     3.298584
      pz      :     0.996165  p :     2.860294
      px      :     0.910921
      py      :     0.953209
      dz2     :     0.011751  d :     0.048905
      dxz     :     0.006524
      dyz     :     0.010651
      dx2y2   :     0.010898
      dxy     :     0.009081
  2 H s       :     0.866379  s :     0.866379
      pz      :     0.008739  p :     0.015325
      px      :     0.003336
      py      :     0.003251
  3 H s       :     0.866385  s :     0.866385
      pz      :     0.004634  p :     0.015325
      px      :     0.002837
      py      :     0.007854
  4 H s       :     0.862229  s :     0.862229
      pz      :     0.004058  p :     0.015484
      px      :     0.006759
      py      :     0.004667
  5 H s       :     0.880905  s :     0.880905
      pz      :     0.004609  p :     0.015778
      px      :     0.003003
      py      :     0.008166
  6 H s       :     0.880890  s :     0.880890
      pz      :     0.008900  p :     0.015779
      px      :     0.003429
      py      :     0.003450

SPIN
  0 C s       :    -0.028130  s :    -0.028130
      pz      :    -0.014654  p :    -0.097965
      px      :    -0.049756
      py      :    -0.033555
      dz2     :     0.000296  d :     0.005643
      dxz     :     0.001348
      dyz     :     0.000090
      dx2y2   :     0.002270
      dxy     :     0.001639
  1 C s       :     0.207450  s :     0.207450
      pz      :     0.203706  p :     0.964669
      px      :     0.456339
      py      :     0.304624
      dz2     :    -0.000818  d :    -0.001676
      dxz     :     0.000350
      dyz     :    -0.000426
      dx2y2   :    -0.000279
      dxy     :    -0.000504
  2 H s       :     0.010971  s :     0.010971
      pz      :    -0.000043  p :    -0.000159
      px      :    -0.000104
      py      :    -0.000013
  3 H s       :     0.010972  s :     0.010972
      pz      :     0.000016  p :    -0.000159
      px      :    -0.000135
      py      :    -0.000040
  4 H s       :     0.059017  s :     0.059017
      pz      :     0.000022  p :    -0.000194
      px      :    -0.000478
      py      :     0.000262
  5 H s       :    -0.067352  s :    -0.067352
      pz      :     0.001197  p :     0.002131
      px      :     0.000832
      py      :     0.000101
  6 H s       :    -0.067348  s :    -0.067348
      pz      :     0.000185  p :     0.002131
      px      :     0.001578
      py      :     0.000368


                     *******************************
                     * LOEWDIN POPULATION ANALYSIS *
                     *******************************

-----------------------------------------
LOEWDIN ATOMIC CHARGES AND SPIN DENSITIES
-----------------------------------------
   0 C :   -0.203834   -0.033318
   1 C :   -0.111648    1.010775
   2 H :    0.066686    0.007478
   3 H :    0.066687    0.007479
   4 H :    0.072369    0.047194
   5 H :    0.054872   -0.019807
   6 H :    0.054869   -0.019800

--------------------------------------------------
LOEWDIN REDUCED ORBITAL CHARGES AND SPIN DENSITIES
--------------------------------------------------
CHARGE
  0 C s       :     2.905583  s :     2.905583
      pz      :     1.080866  p :     3.201671
      px      :     1.048871
      py      :     1.071934
      dz2     :     0.018703  d :     0.096580
      dxz     :     0.015789
      dyz     :     0.018533
      dx2y2   :     0.020115
      dxy     :     0.023440
  1 C s       :     3.001228  s :     3.001228
      pz      :     1.043405  p :     3.032569
      px      :     0.985258
      py      :     1.003907
      dz2     :     0.018137  d :     0.077850
      dxz     :     0.010338
      dyz     :     0.016384
      dx2y2   :     0.017793
      dxy     :     0.015199
  2 H s       :     0.890124  s :     0.890124
      pz      :     0.025425  p :     0.043190
      px      :     0.008839
      py      :     0.008927
  3 H s       :     0.890125  s :     0.890125
      pz      :     0.013120  p :     0.043188
      px      :     0.007462
      py      :     0.022606
  4 H s       :     0.883871  s :     0.883871
      pz      :     0.011311  p :     0.043760
      px      :     0.019242
      py      :     0.013208
  5 H s       :     0.899831  s :     0.899831
      pz      :     0.013193  p :     0.045297
      px      :     0.008541
      py      :     0.023563
  6 H s       :     0.899827  s :     0.899827
      pz      :     0.026100  p :     0.045304
      px      :     0.009927
      py      :     0.009278

SPIN
  0 C s       :    -0.007947  s :    -0.007947
      pz      :    -0.006301  p :    -0.039469
      px      :    -0.017430
      py      :    -0.015738
      dz2     :     0.000853  d :     0.014097
      dxz     :     0.003086
      dyz     :     0.000410
      dx2y2   :     0.005797
      dxy     :     0.003952
  1 C s       :     0.122509  s :     0.122509
      pz      :     0.173852  p :     0.891124
      px      :     0.439788
      py      :     0.277483
      dz2     :    -0.001556  d :    -0.002859
      dxz     :     0.000620
      dyz     :    -0.001032
      dx2y2   :    -0.000630
      dxy     :    -0.000261
  2 H s       :     0.008228  s :     0.008228
      pz      :    -0.000267  p :    -0.000750
      px      :    -0.000323
      py      :    -0.000160
  3 H s       :     0.008229  s :     0.008229
      pz      :    -0.000149  p :    -0.000750
      px      :    -0.000346
      py      :    -0.000255
  4 H s       :     0.048580  s :     0.048580
      pz      :    -0.000216  p :    -0.001386
      px      :    -0.001069
      py      :    -0.000102
  5 H s       :    -0.030392  s :    -0.030392
      pz      :     0.003807  p :     0.010585
      px      :     0.004023
      py      :     0.002755
  6 H s       :    -0.030387  s :    -0.030387
      pz      :     0.002429  p :     0.010587
      px      :     0.005670
      py      :     0.002488


                      *****************************
                      * MAYER POPULATION ANALYSIS *
                      *****************************

  NA   - Mulliken gross atomic population
  ZA   - Total nuclear charge
  QA   - Mulliken gross atomic charge
  VA   - Mayer's total valence
  BVA  - Mayer's bonded valence
  FA   - Mayer's free valence

  ATOM       NA         ZA         QA         VA         BVA        FA
  0 C      6.3577     6.0000    -0.3577     3.9494     3.7015     0.2479
  1 C      6.2078     6.0000    -0.2078     3.8914     2.7718     1.1196
  2 H      0.8817     1.0000     0.1183     0.9580     0.9124     0.0456
  3 H      0.8817     1.0000     0.1183     0.9580     0.9124     0.0456
  4 H      0.8777     1.0000     0.1223     0.9561     0.9066     0.0495
  5 H      0.8967     1.0000     0.1033     0.9636     0.9140     0.0496
  6 H      0.8967     1.0000     0.1033     0.9636     0.9140     0.0496

  Mayer bond orders larger than 0.100000
B(  0-C ,  1-C ) :   0.9264 B(  0-C ,  2-H ) :   0.9388 B(  0-C ,  3-H ) :   0.9388 
B(  0-C ,  4-H ) :   0.9254 B(  1-C ,  5-H ) :   0.9349 B(  1-C ,  6-H ) :   0.9349 



                *******************************************
                * RELAXED MP2 DENSITY POPULATION ANALYSIS *
                *******************************************

------------------------------------------------------------------------------
                           ORCA POPULATION ANALYSIS
------------------------------------------------------------------------------
Input electron density              ... ethyl-radical.pmp2re
Input spin density                  ... ethyl-radical.rmp2re
BaseName (.gbw .S,...)              ... ethyl-radical

                    ********************************
                    * MULLIKEN POPULATION ANALYSIS *
                    ********************************

------------------------------------------
MULLIKEN ATOMIC CHARGES AND SPIN DENSITIES
------------------------------------------
   0 C :   -0.354981   -0.079465
   1 C :   -0.199405    1.099346
   2 H :    0.117132    0.006901
   3 H :    0.117128    0.006901
   4 H :    0.122426    0.054275
   5 H :    0.098844   -0.043979
   6 H :    0.098855   -0.043978
Sum of atomic charges       :   -0.0000000
Sum of atomic spin densities:    1.0000000

---------------------------------------------------
MULLIKEN REDUCED ORBITAL CHARGES AND SPIN DENSITIES
---------------------------------------------------
CHARGE
  0 C s       :     3.236224  s :     3.236224
      pz      :     1.059750  p :     3.064810
      px      :     0.974918
      py      :     1.030143
      dz2     :     0.010584  d :     0.053947
      dxz     :     0.009488
      dyz     :     0.011201
      dx2y2   :     0.010906
      dxy     :     0.011768
  1 C s       :     3.289473  s :     3.289473
      pz      :     0.993970  p :     2.864455
      px      :     0.916774
      py      :     0.953712
      dz2     :     0.010701  d :     0.045477
      dxz     :     0.006383
      dyz     :     0.009979
      dx2y2   :     0.010429
      dxy     :     0.007984
  2 H s       :     0.868272  s :     0.868272
      pz      :     0.007799  p :     0.014596
      px      :     0.003427
      py      :     0.003371
  3 H s       :     0.868276  s :     0.868276
      pz      :     0.004479  p :     0.014596
      px      :     0.003018
      py      :     0.007099
  4 H s       :     0.862738  s :     0.862738
      pz      :     0.004054  p :     0.014836
      px      :     0.006247
      py      :     0.004535
  5 H s       :     0.886052  s :     0.886052
      pz      :     0.004512  p :     0.015104
      px      :     0.003186
      py      :     0.007406
  6 H s       :     0.886040  s :     0.886040
      pz      :     0.007984  p :     0.015105
      px      :     0.003559
      py      :     0.003562

SPIN
  0 C s       :    -0.020335  s :    -0.020335
      pz      :    -0.008544  p :    -0.064700
      px      :    -0.032864
      py      :    -0.023292
      dz2     :     0.000231  d :     0.005570
      dxz     :     0.001347
      dyz     :    -0.000005
      dx2y2   :     0.002495
      dxy     :     0.001502
  1 C s       :     0.180118  s :     0.180118
      pz      :     0.185619  p :     0.919691
      px      :     0.445567
      py      :     0.288505
      dz2     :    -0.000484  d :    -0.000463
      dxz     :     0.000420
      dyz     :    -0.000123
      dx2y2   :    -0.000095
      dxy     :    -0.000182
  2 H s       :     0.006978  s :     0.006978
      pz      :     0.000010  p :    -0.000077
      px      :    -0.000085
      py      :    -0.000002
  3 H s       :     0.006977  s :     0.006977
      pz      :     0.000045  p :    -0.000077
      px      :    -0.000110
      py      :    -0.000011
  4 H s       :     0.054163  s :     0.054163
      pz      :     0.000072  p :     0.000111
      px      :    -0.000269
      py      :     0.000308
  5 H s       :    -0.046057  s :    -0.046057
      pz      :     0.001108  p :     0.002079
      px      :     0.000907
      py      :     0.000063
  6 H s       :    -0.046058  s :    -0.046058
      pz      :     0.000070  p :     0.002079
      px      :     0.001586
      py      :     0.000424


                     *******************************
                     * LOEWDIN POPULATION ANALYSIS *
                     *******************************

-----------------------------------------
LOEWDIN ATOMIC CHARGES AND SPIN DENSITIES
-----------------------------------------
   0 C :   -0.216212   -0.012289
   1 C :   -0.119582    0.970895
   2 H :    0.071165    0.005835
   3 H :    0.071167    0.005835
   4 H :    0.078485    0.047573
   5 H :    0.057491   -0.008927
   6 H :    0.057487   -0.008923

--------------------------------------------------
LOEWDIN REDUCED ORBITAL CHARGES AND SPIN DENSITIES
--------------------------------------------------
CHARGE
  0 C s       :     2.904872  s :     2.904872
      pz      :     1.087467  p :     3.220060
      px      :     1.053971
      py      :     1.078622
      dz2     :     0.017324  d :     0.091280
      dxz     :     0.015331
      dyz     :     0.017594
      dx2y2   :     0.019381
      dxy     :     0.021651
  1 C s       :     3.004305  s :     3.004305
      pz      :     1.047286  p :     3.040941
      px      :     0.987306
      py      :     1.006349
      dz2     :     0.017127  d :     0.074336
      dxz     :     0.010127
      dyz     :     0.015716
      dx2y2   :     0.017304
      dxy     :     0.014063
  2 H s       :     0.885868  s :     0.885868
      pz      :     0.024929  p :     0.042967
      px      :     0.008973
      py      :     0.009064
  3 H s       :     0.885869  s :     0.885869
      pz      :     0.013045  p :     0.042965
      px      :     0.007694
      py      :     0.022226
  4 H s       :     0.877854  s :     0.877854
      pz      :     0.011343  p :     0.043661
      px      :     0.019105
      py      :     0.013213
  5 H s       :     0.897418  s :     0.897418
      pz      :     0.013115  p :     0.045090
      px      :     0.008786
      py      :     0.023189
  6 H s       :     0.897416  s :     0.897416
      pz      :     0.025604  p :     0.045097
      px      :     0.010117
      py      :     0.009376

SPIN
  0 C s       :    -0.004728  s :    -0.004728
      pz      :    -0.002846  p :    -0.021055
      px      :    -0.007934
      py      :    -0.010276
      dz2     :     0.000642  d :     0.013494
      dxz     :     0.003070
      dyz     :     0.000170
      dx2y2   :     0.006000
      dxy     :     0.003613
  1 C s       :     0.110096  s :     0.110096
      pz      :     0.162868  p :     0.861458
      px      :     0.430662
      py      :     0.267929
      dz2     :    -0.000912  d :    -0.000660
      dxz     :     0.000739
      dyz     :    -0.000466
      dx2y2   :    -0.000204
      dxy     :     0.000183
  2 H s       :     0.006204  s :     0.006204
      pz      :    -0.000072  p :    -0.000369
      px      :    -0.000210
      py      :    -0.000087
  3 H s       :     0.006204  s :     0.006204
      pz      :    -0.000031  p :    -0.000369
      px      :    -0.000239
      py      :    -0.000099
  4 H s       :     0.048187  s :     0.048187
      pz      :    -0.000080  p :    -0.000613
      px      :    -0.000606
      py      :     0.000073
  5 H s       :    -0.018577  s :    -0.018577
      pz      :     0.003475  p :     0.009650
      px      :     0.004072
      py      :     0.002103
  6 H s       :    -0.018575  s :    -0.018575
      pz      :     0.001654  p :     0.009652
      px      :     0.005626
      py      :     0.002372


                      *****************************
                      * MAYER POPULATION ANALYSIS *
                      *****************************

  NA   - Mulliken gross atomic population
  ZA   - Total nuclear charge
  QA   - Mulliken gross atomic charge
  VA   - Mayer's total valence
  BVA  - Mayer's bonded valence
  FA   - Mayer's free valence

  ATOM       NA         ZA         QA         VA         BVA        FA
  0 C      6.3550     6.0000    -0.3550     3.9755     3.7328     0.2426
  1 C      6.1994     6.0000    -0.1994     3.9095     2.8271     1.0824
  2 H      0.8829     1.0000     0.1171     0.9604     0.9150     0.0455
  3 H      0.8829     1.0000     0.1171     0.9604     0.9150     0.0455
  4 H      0.8776     1.0000     0.1224     0.9579     0.9094     0.0485
  5 H      0.9012     1.0000     0.0988     0.9657     0.9187     0.0470
  6 H      0.9011     1.0000     0.0989     0.9657     0.9187     0.0470

  Mayer bond orders larger than 0.100000
B(  0-C ,  1-C ) :   0.9643 B(  0-C ,  2-H ) :   0.9366 B(  0-C ,  3-H ) :   0.9366 
B(  0-C ,  4-H ) :   0.9184 B(  1-C ,  5-H ) :   0.9358 B(  1-C ,  6-H ) :   0.9358 



----------------------------------
MP2 DERIVATIVE INTEGRAL GENERATION
----------------------------------

Input SCF Electron Density              ... ethyl-radical.scfp
Input Correlated Electron Density       ... ethyl-radical.pmp2re
Input Energy Weighted Density           ... ethyl-radical.wmp2.tmp
Input Wavefunction Amplitudes           ... ethyl-radical.mp2taa.tmp

Nuclear repulsion gradient              ... done (  0.0 sec)
HCore & Overlap gradient  (SHARK)       ... done (  0.0 sec)
Analytic two-electron gradient terms    ... 
  Batch handling in the gradient evaluation:
  General contraction                   ... not used
  Memory available                      ... 4093.4 MB
  Memory per occupied orbital in Q2     ...    0.3 MB
  Memory per occupied orbital in Q3     ...    0.0 MB
  Total memory requirement per |i>      ...    0.3 MB
  Number of orbitals treated per batch  ...     13
  Number of batches to be done          ...      1
done (  0.6 sec)

---------------------------------------
MP2 TOTAL ENERGY:      -78.863534489 Eh
---------------------------------------

The final MP2 gradient
  0:   0.00194313  -0.02208685  -0.00884748
  1:   0.01781250   0.03920714   0.02109253
  2:   0.00162200   0.00018097   0.00242473
  3:   0.00241528   0.00151373  -0.00069520
  4:  -0.00056078   0.00133914   0.00042682
  5:  -0.01188502  -0.01053948  -0.00613536
  6:  -0.01134712  -0.00961465  -0.00826603

-----------------------------------
NORM OF THE MP2 GRADIENT:  0.058891
-----------------------------------

Maximum memory used throughout the entire MP2-calculation: 12.5 MB

-------------------------   --------------------
FINAL SINGLE POINT ENERGY       -78.863534489457
-------------------------   --------------------

------------------------------------------------------------------------------
                         ORCA GEOMETRY RELAXATION STEP
------------------------------------------------------------------------------

Reading the OPT-File                    .... done
Getting information on internals        .... done
Copying old internal coords+grads       .... done
Making the new internal coordinates     .... (2022 redundants) done
Validating the new internal coordinates .... (2022 redundants) done
Calculating the B-matrix                .... done
Calculating the G,G- and P matrices     .... done
Transforming gradient to internals      .... done
Projecting the internal gradient        .... done
Number of atoms                         ....   7
Number of internal coordinates          ....  20
Current Energy                          ....   -78.863534489 Eh
Current gradient norm                   ....     0.058891475 Eh/bohr
Maximum allowed component of the step   ....  0.300
Current trust radius                    ....  0.300
Evaluating the initial hessian          ....  (Almloef) done
Projecting the Hessian                  .... done
Forming the augmented Hessian           .... done
Diagonalizing the augmented Hessian     .... done
Last element of RFO vector              ....  0.960644807
Lowest eigenvalues of augmented Hessian:
 -0.009545414  0.014648147  0.089526660  0.134186207  0.186807291
Length of the computed step             ....  0.289159618
The final length of the internal step   ....  0.289159618
Converting the step to Cartesian space:
 Initial RMS(Int)=    0.0646580563
Transforming coordinates:
 Iter   0:  RMS(Cart)=    0.0562407435 RMS(Int)=    1.9522750597
 Iter   5:  RMS(Cart)=    0.0000006876 RMS(Int)=    0.0000007460
done
Storing new coordinates                 .... done

                                .--------------------.
          ----------------------|Geometry convergence|-------------------------
          Item                value                   Tolerance       Converged
          ---------------------------------------------------------------------
          RMS gradient        0.0086274526            0.0001000000      NO
          MAX gradient        0.0164939437            0.0003000000      NO
          RMS step            0.0646580563            0.0020000000      NO
          MAX step            0.1406618227            0.0040000000      NO
          -------------------------------------------------------------------------
          ........................................................
          Max(Bonds)      0.0168      Max(Angles)    4.95
          Max(Dihed)        8.06      Max(Improp)    0.00
          ---------------------------------------------------------------------

The optimization has not yet converged - more geometry cycles are needed


    ---------------------------------------------------------------------------
                         Redundant Internal Coordinates
                            (Angstroem and degrees)

        Definition                    Value    dE/dq     Step     New-Value
    ----------------------------------------------------------------------------
     1. B(C   1,C   0)                1.4820 -0.014450  0.0168    1.4988   
     2. B(H   2,C   0)                1.0930  0.001846 -0.0027    1.0903   
     3. B(H   3,C   0)                1.0930  0.001863 -0.0027    1.0903   
     4. B(H   4,C   0)                1.0930 -0.000472  0.0007    1.0937   
     5. B(H   5,C   1)                1.0984  0.006822 -0.0101    1.0884   
     6. B(H   6,C   1)                1.0984  0.006786 -0.0100    1.0884   
     7. A(C   1,C   0,H   3)          111.20 -0.004888    0.73    111.93   
     8. A(C   1,C   0,H   4)          111.20  0.003666   -0.75    110.46   
     9. A(C   1,C   0,H   2)          111.20 -0.001476    0.50    111.70   
    10. A(H   2,C   0,H   4)          107.69  0.003868   -0.52    107.17   
    11. A(H   3,C   0,H   4)          107.69 -0.002557   -0.02    107.66   
    12. A(H   2,C   0,H   3)          107.68  0.001553    0.03    107.71   
    13. A(C   0,C   1,H   5)          111.41 -0.016492    4.95    116.36   
    14. A(H   5,C   1,H   6)          107.47 -0.000576    4.81    112.28   
    15. A(C   0,C   1,H   6)          111.41 -0.016494    4.95    116.36   
    16. D(H   5,C   1,C   0,H   3)   -180.00  0.009138   -4.78   -184.78   
    17. D(H   5,C   1,C   0,H   4)    -60.00  0.005080   -4.83    -64.82   
    18. D(H   6,C   1,C   0,H   2)    180.00 -0.011678    7.20    187.19   
    19. D(H   6,C   1,C   0,H   3)    -60.00 -0.013988    8.06    -51.95   
    20. D(H   5,C   1,C   0,H   2)     60.00  0.011448   -5.65     54.36   
    ----------------------------------------------------------------------------

Geometry step timings:
Preparation and reading OPT file:      0.000 s ( 3.583 %)
Internal coordinates            :      0.000 s ( 2.606 %)
B/P matrices and projection     :      0.000 s (23.779 %)
Hessian update/contruction      :      0.000 s (12.704 %)
Making the step                 :      0.000 s (16.287 %)
Converting the step to Cartesian:      0.000 s ( 5.863 %)
Storing new data                :      0.000 s ( 4.886 %)
Checking convergence            :      0.000 s (10.423 %)
Final printing                  :      0.000 s (19.870 %)
Total time                      :      0.000 s

Time for energy+gradient        :      1.743 s
Time for complete geometry iter :      1.753 s

         *************************************************************
         *                GEOMETRY OPTIMIZATION CYCLE   2            *
         *************************************************************
---------------------------------
CARTESIAN COORDINATES (ANGSTROEM)
---------------------------------
  C     -4.012171    1.783614   -0.003249
  C     -2.761196    0.958557   -0.029913
  H     -4.297526    2.048918    1.015066
  H     -3.902447    2.709346   -0.568722
  H     -4.847402    1.225637   -0.435956
  H     -2.770641    0.060556    0.584965
  H     -2.342312    0.761701   -1.014979

----------------------------
CARTESIAN COORDINATES (A.U.)
----------------------------
  NO LB      ZA    FRAG     MASS         X           Y           Z
   0 C     6.0000    0    12.011   -7.581904    3.370542   -0.006140
   1 C     6.0000    0    12.011   -5.217904    1.811411   -0.056528
   2 H     1.0000    0     1.008   -8.121146    3.871894    1.918196
   3 H     1.0000    0     1.008   -7.374556    5.119922   -1.074729
   4 H     1.0000    0     1.008   -9.160262    2.316119   -0.823837
   5 H     1.0000    0     1.008   -5.235752    0.114434    1.105423
   6 H     1.0000    0     1.008   -4.426329    1.439405   -1.918032

--------------------------------
INTERNAL COORDINATES (ANGSTROEM)
--------------------------------
 C      0   0   0     0.000000000000     0.00000000     0.00000000
 C      1   0   0     1.498788736716     0.00000000     0.00000000
 H      1   2   0     1.090311176061   111.65453734     0.00000000
 H      1   2   3     1.090311103780   111.97277546   120.86660942
 H      1   2   3     1.093702098047   110.45834427   240.95586749
 H      2   1   3     1.088379760289   115.90616171    54.08783727
 H      2   1   3     1.088379291388   115.90637951   187.52424862

---------------------------
INTERNAL COORDINATES (A.U.)
---------------------------
 C      0   0   0     0.000000000000     0.00000000     0.00000000
 C      1   0   0     2.832300244998     0.00000000     0.00000000
 H      1   2   0     2.060389523509   111.65453734     0.00000000
 H      1   2   3     2.060389386917   111.97277546   120.86660942
 H      1   2   3     2.066797437404   110.45834427   240.95586749
 H      2   1   3     2.056739676648   115.90616171    54.08783727
 H      2   1   3     2.056738790554   115.90637951   187.52424862

------------------------------------------------------------------------------
                   ___                                                        
                  /   \      - P O W E R E D   B Y -                         
                 /     \                                                     
                 |  |  |   _    _      __       _____    __    __             
                 |  |  |  | |  | |    /  \     |  _  \  |  |  /  |          
                  \  \/   | |  | |   /    \    | | | |  |  | /  /          
                 / \  \   | |__| |  /  /\  \   | |_| |  |  |/  /          
                |  |  |   |  __  | /  /__\  \  |    /   |      \           
                |  |  |   | |  | | |   __   |  |    \   |  |\   \          
                \     /   | |  | | |  |  |  |  | |\  \  |  | \   \       
                 \___/    |_|  |_| |__|  |__|  |_| \__\ |__|  \__/        
                                                                              
                      - O R C A' S   B I G   F R I E N D -                    
                                      &                                       
                       - I N T E G R A L  F E E D E R -                       
                                                                              
 v1 FN, 2020, v2 2021, v3 2022-2024                                           
------------------------------------------------------------------------------


----------------------
SHARK INTEGRAL PACKAGE
----------------------

Number of atoms                             ...      7
Number of basis functions                   ...     53
Number of shells                            ...     27
Maximum angular momentum                    ...      2
Integral batch strategy                     ... SHARK/LIBINT Hybrid
RI-J (if used) integral strategy            ... SPLIT-RIJ (Revised 2003 algorithm where possible)
Printlevel                                  ...      1
Contraction scheme used                     ... SEGMENTED contraction
Prescreening option                         ... SCHWARTZ
   Thresh                                   ... 2.500e-11
   Tcut                                     ... 2.500e-12
   Tpresel                                  ... 2.500e-12 
Coulomb Range Separation                    ... NOT USED
Exchange Range Separation                   ... NOT USED
Multipole approximations                    ... NOT USED
Finite Nucleus Model                        ... NOT USED
CABS basis                                  ... NOT available
Auxiliary Coulomb fitting basis             ... NOT available
Auxiliary J/K fitting basis                 ... NOT available
[...]
	<< Calculating gradient on displaced geometry  19 (of  36) >>
	<< Calculating gradient on displaced geometry  20 (of  36) >>
	<< Calculating gradient on displaced geometry  21 (of  36) >>
	<< Calculating gradient on displaced geometry  22 (of  36) >>
	<< Calculating gradient on displaced geometry  23 (of  36) >>
	<< Calculating gradient on displaced geometry  24 (of  36) >>
	<< Calculating gradient on displaced geometry  25 (of  36) >>
	<< Calculating gradient on displaced geometry  26 (of  36) >>
	<< Calculating gradient on displaced geometry  27 (of  36) >>
	<< Calculating gradient on displaced geometry  28 (of  36) >>
	<< Calculating gradient on displaced geometry  29 (of  36) >>
	<< Calculating gradient on displaced geometry  30 (of  36) >>
	<< Calculating gradient on displaced geometry  31 (of  36) >>
	<< Calculating gradient on displaced geometry  32 (of  36) >>
	<< Calculating gradient on displaced geometry  33 (of  36) >>
	<< Calculating gradient on displaced geometry  34 (of  36) >>
	<< Calculating gradient on displaced geometry  35 (of  36) >>
	<< Calculating gradient on displaced geometry  36 (of  36) >>

-----------------------
VIBRATIONAL FREQUENCIES
-----------------------

Scaling factor for frequencies =  1.000000000  (already applied!)

     0:       0.00 cm**-1
     1:       0.00 cm**-1
     2:       0.00 cm**-1
     3:       0.00 cm**-1
     4:       0.00 cm**-1
     5:       0.00 cm**-1
     6:     168.87 cm**-1
     7:     466.79 cm**-1
     8:     833.79 cm**-1
     9:    1024.54 cm**-1
    10:    1109.42 cm**-1
    11:    1244.20 cm**-1
    12:    1460.07 cm**-1
    13:    1535.61 cm**-1
    14:    1548.89 cm**-1
    15:    1549.52 cm**-1
    16:    3094.91 cm**-1
    17:    3181.26 cm**-1
    18:    3226.92 cm**-1
    19:    3266.74 cm**-1
    20:    3380.69 cm**-1


------------
NORMAL MODES
------------

These modes are the Cartesian displacements weighted by the diagonal matrix
M(i,i)=1/sqrt(m[i]) where m[i] is the mass of the displaced atom
Thus, these vectors are normalized but *not* orthogonal

                  0          1          2          3          4          5    
      0       0.000000   0.000000   0.000000   0.000000   0.000000   0.000000
      1       0.000000   0.000000   0.000000   0.000000   0.000000   0.000000
      2       0.000000   0.000000   0.000000   0.000000   0.000000   0.000000
      3       0.000000   0.000000   0.000000   0.000000   0.000000   0.000000
      4       0.000000   0.000000   0.000000   0.000000   0.000000   0.000000
      5       0.000000   0.000000   0.000000   0.000000   0.000000   0.000000
      6       0.000000   0.000000   0.000000   0.000000   0.000000   0.000000
      7       0.000000   0.000000   0.000000   0.000000   0.000000   0.000000
      8       0.000000   0.000000   0.000000   0.000000   0.000000   0.000000
      9       0.000000   0.000000   0.000000   0.000000   0.000000   0.000000
     10       0.000000   0.000000   0.000000   0.000000   0.000000   0.000000
     11       0.000000   0.000000   0.000000   0.000000   0.000000   0.000000
     12       0.000000   0.000000   0.000000   0.000000   0.000000   0.000000
     13       0.000000   0.000000   0.000000   0.000000   0.000000   0.000000
     14       0.000000   0.000000   0.000000   0.000000   0.000000   0.000000
     15       0.000000   0.000000   0.000000   0.000000   0.000000   0.000000
     16       0.000000   0.000000   0.000000   0.000000   0.000000   0.000000
     17       0.000000   0.000000   0.000000   0.000000   0.000000   0.000000
     18       0.000000   0.000000   0.000000   0.000000   0.000000   0.000000
     19       0.000000   0.000000   0.000000   0.000000   0.000000   0.000000
     20       0.000000   0.000000   0.000000   0.000000   0.000000   0.000000
                  6          7          8          9         10         11    
      0       0.000562   0.000869  -0.008853  -0.101010  -0.216257   0.034613
      1       0.001039  -0.006625  -0.014629  -0.079807   0.199830   0.057364
      2      -0.002629  -0.002597   0.035668  -0.058543   0.029032  -0.137253
      3      -0.001511   0.084001  -0.010663   0.075493   0.242976  -0.030397
      4      -0.002708   0.090130  -0.018013   0.044989  -0.201991  -0.050043
      5       0.006941   0.059387   0.041800   0.037844  -0.023438   0.119673
      6       0.198436  -0.094021  -0.269913   0.411539  -0.389789   0.281963
      7       0.269974  -0.012854   0.351582   0.019178   0.256313  -0.375500
      8      -0.018606  -0.024484  -0.119184   0.040667  -0.016747   0.033715
      9      -0.123579  -0.091891   0.348689   0.388038  -0.404946  -0.325140
     10      -0.144917  -0.008738  -0.214629  -0.033868   0.241503   0.291416
     11      -0.276070  -0.030738  -0.202808   0.153440   0.028133   0.162345
     12      -0.082714   0.098919   0.048777  -0.511763  -0.134168  -0.066654
     13      -0.138040  -0.162107   0.075852   0.579001   0.082654  -0.106229
     14       0.325976  -0.044347  -0.185335   0.112768   0.002418   0.254945
     15      -0.333208  -0.455709   0.423186   0.014145   0.314762   0.392234
     16      -0.359253  -0.394952  -0.186738  -0.065102  -0.263835  -0.212824
     17      -0.287561  -0.311137  -0.230280  -0.052112  -0.073477  -0.140934
     18       0.352375  -0.468576  -0.318192   0.002087   0.295770  -0.332638
     19       0.392119  -0.416368   0.362888  -0.084321  -0.290882   0.315899
     20       0.204877  -0.265994  -0.185471  -0.008122  -0.006981  -0.100597
                 12         13         14         15         16         17    
      0       0.112601   0.037349  -0.021998  -0.010958  -0.057495   0.026427
      1      -0.076753   0.030904   0.053827  -0.016053  -0.000691   0.071835
      2      -0.004095   0.022042   0.015625   0.042866  -0.014909   0.037043
      3       0.011697  -0.044915   0.076569  -0.002863  -0.000076   0.001456
      4      -0.007084   0.048286  -0.054995  -0.008913  -0.000154  -0.000805
      5       0.000115   0.008932  -0.004695   0.018269   0.000046   0.000033
      6      -0.450585  -0.210727  -0.065176   0.482269   0.057710   0.140336
      7       0.211732  -0.469730  -0.447706   0.076401  -0.084386  -0.130051
      8      -0.190176   0.081515   0.124437   0.113034  -0.330230  -0.592116
      9      -0.518231  -0.065273   0.099863  -0.461709  -0.068408  -0.093526
     10       0.099023  -0.241072  -0.218678  -0.065225  -0.294832  -0.521925
     11       0.076164  -0.451877  -0.394971  -0.212025   0.166683   0.329072
     12      -0.290828  -0.133984  -0.081067   0.154111   0.701793  -0.381785
     13       0.502275   0.253174   0.106264   0.268703   0.385327  -0.195102
     14       0.139358   0.080759   0.049353  -0.618962   0.341421  -0.179665
     15      -0.129715   0.305627  -0.371600   0.022111  -0.002470   0.000953
     16       0.060050  -0.149913   0.173599  -0.029785   0.002234  -0.000403
     17       0.087876  -0.258921   0.316159  -0.007418  -0.000553   0.002104
     18      -0.091743   0.194515  -0.232274  -0.032099  -0.002628   0.001787
     19       0.125896  -0.336065   0.400430   0.047391   0.001722   0.001109
     20      -0.065796   0.179445  -0.225216  -0.003094  -0.000226  -0.001176
                 18         19         20    
      0      -0.021071   0.003122   0.001190
      1      -0.035213  -0.001696   0.002049
      2       0.083312  -0.000244  -0.004897
      3       0.001132  -0.042927   0.022845
      4       0.002240   0.045237   0.037957
      5      -0.004950   0.008069  -0.089883
      6       0.144449  -0.001546  -0.010151
      7      -0.169657   0.000879   0.010178
      8      -0.667276   0.000522   0.037349
      9       0.112942  -0.001986  -0.004383
     10       0.599131  -0.002148  -0.034883
     11      -0.347822   0.001590   0.020150
     12      -0.005752   0.004386   0.000923
     13      -0.009005   0.000926   0.001117
     14       0.020431   0.001471  -0.001288
     15       0.003341   0.098671   0.106731
     16      -0.031719  -0.491763  -0.497427
     17       0.027362   0.498658   0.481656
     18      -0.017390   0.374784  -0.379516
     19       0.004149  -0.026715   0.044313
     20       0.033575  -0.595477   0.591495


-----------
IR SPECTRUM
-----------

 Mode   freq       eps      Int      T**2         TX        TY        TZ
       cm**-1   L/(mol*cm) km/mol    a.u.
----------------------------------------------------------------------------
  6:    168.87   0.000070    0.35  0.000129  ( 0.002341  0.003982 -0.010377)
  7:    466.79   0.009101   45.99  0.006084  (-0.054465 -0.044883 -0.033220)
  8:    833.79   0.000299    1.51  0.000112  ( 0.002392  0.003752 -0.009599)
  9:   1024.54   0.000047    0.24  0.000014  ( 0.003414 -0.001630  0.000129)
 10:   1109.42   0.000008    0.04  0.000002  (-0.000906 -0.000988 -0.000670)
 11:   1244.20   0.000402    2.03  0.000101  (-0.002256 -0.003880  0.008975)
 12:   1460.07   0.000085    0.43  0.000018  (-0.003887  0.001723 -0.000317)
 13:   1535.61   0.000658    3.32  0.000134  (-0.009507 -0.004906 -0.004385)
 14:   1548.89   0.000443    2.24  0.000089  ( 0.000388 -0.008853 -0.003263)
 15:   1549.52   0.000689    3.48  0.000139  ( 0.002543  0.004157 -0.010729)
 16:   3094.91   0.004405   22.26  0.000444  (-0.020473  0.003266 -0.003785)
 17:   3181.26   0.004691   23.71  0.000460  ( 0.004566  0.018873  0.009115)
 18:   3226.92   0.003877   19.59  0.000375  (-0.004456 -0.007315  0.017366)
 19:   3266.74   0.002783   14.06  0.000266  (-0.012457  0.010467  0.001052)
 20:   3380.69   0.003000   15.16  0.000277  ( 0.003800  0.006280 -0.014933)

* The epsilon (eps) is given for a Dirac delta lineshape.
** The dipole moment derivative (T) already includes vibrational overlap.

The first frequency considered to be a vibration is 6
The total number of vibrations considered is 15


--------------------------
THERMOCHEMISTRY AT 298.15K
--------------------------

Temperature         ...   298.15 K
Pressure            ...     1.00 atm
Total Mass          ...    29.06 AMU
Quasi RRHO          ...     True
Cut-Off Frequency   ...     1.00 cm^-1

Throughout the following assumptions are being made:
  (1) The electronic state is orbitally nondegenerate
      but the spin degeneracy is treated
  (2) There are no thermally accessible electronically excited states
  (3) Hindered rotations indicated by low frequency modes are not
      treated as such but are treated as vibrations and this may
      cause some error
  (4) All equations used are the standard statistical mechanics
      equations for an ideal gas
  (5) All vibrations are strictly harmonic

freq.     168.87  E(vib)   ...       0.38 
freq.     466.79  E(vib)   ...       0.16 
freq.     833.79  E(vib)   ...       0.04 
freq.    1024.54  E(vib)   ...       0.02 
freq.    1109.42  E(vib)   ...       0.02 
freq.    1244.20  E(vib)   ...       0.01 
freq.    1460.07  E(vib)   ...       0.00 
freq.    1535.61  E(vib)   ...       0.00 
freq.    1548.89  E(vib)   ...       0.00 
freq.    1549.52  E(vib)   ...       0.00 
freq.    3094.91  E(vib)   ...       0.00 
freq.    3181.26  E(vib)   ...       0.00 
freq.    3226.92  E(vib)   ...       0.00 
freq.    3266.74  E(vib)   ...       0.00 
freq.    3380.69  E(vib)   ...       0.00 

------------
INNER ENERGY
------------

The inner energy is: U= E(el) + E(ZPE) + E(vib) + E(rot) + E(trans)
    E(el)   - is the total energy from the electronic structure calculation
              = E(kin-el) + E(nuc-el) + E(el-el) + E(nuc-nuc)
    E(ZPE)  - the the zero temperature vibrational energy from the frequency calculation
    E(vib)  - the the finite temperature correction to E(ZPE) due to population
              of excited vibrational states
    E(rot)  - is the rotational thermal energy
    E(trans)- is the translational thermal energy

Summary of contributions to the inner energy U:
Electronic energy                ...    -78.87335792 Eh
Zero point energy                ...      0.06172059 Eh      38.73 kcal/mol
Thermal vibrational correction   ...      0.00101988 Eh       0.64 kcal/mol
Thermal rotational correction    ...      0.00141627 Eh       0.89 kcal/mol
Thermal translational correction ...      0.00141627 Eh       0.89 kcal/mol
-----------------------------------------------------------------------
Total thermal energy                    -78.80778492 Eh


Summary of corrections to the electronic energy:
(perhaps to be used in another calculation)
Total thermal correction                  0.00385242 Eh       2.42 kcal/mol
Non-thermal (ZPE) correction              0.06172059 Eh      38.73 kcal/mol
-----------------------------------------------------------------------
Total correction                          0.06557300 Eh      41.15 kcal/mol


--------
ENTHALPY
--------

The enthalpy is H = U + kB*T
                kB is Boltzmann's constant
Total thermal energy              ...    -78.80778492 Eh 
Thermal Enthalpy correction       ...      0.00094421 Eh       0.59 kcal/mol
-----------------------------------------------------------------------
Total Enthalpy                    ...    -78.80684071 Eh


Note: Only C1 symmetry has been detected, increase convergence thresholds 
      if your molecule has a higher symmetry. Symmetry factor of 1.0 is   
      used for the rotational entropy correction. 
 

Note: Rotational entropy computed according to Herzberg 
Infrared and Raman Spectra, Chapter V,1, Van Nostrand Reinhold, 1945 
Point Group:  C1, Symmetry Number:   1  
Rotational constants in cm-1:     3.474750     0.758715     0.704586 

Vibrational entropy computed according to the QRRHO of S. Grimme
Chem.Eur.J. 2012 18 9955 using a reference frequency of 100.0 cm-1


-------
ENTROPY
-------

The entropy contributions are T*S = T*(S(el)+S(vib)+S(rot)+S(trans))
     S(el)   - electronic entropy
     S(vib)  - vibrational entropy
     S(rot)  - rotational entropy
     S(trans)- translational entropy
The entropies will be listed as multiplied by the temperature to get
units of energy

Electronic entropy                ...      0.00065446 Eh      0.41 kcal/mol
Vibrational entropy               ...      0.00170426 Eh      1.07 kcal/mol
Rotational entropy                ...      0.00921847 Eh      5.78 kcal/mol
Translational entropy             ...      0.01712110 Eh     10.74 kcal/mol
-----------------------------------------------------------------------
Final entropy term                ...      0.02869829 Eh     18.01 kcal/mol

In case the symmetry of your molecule has not been determined correctly
or in case you have a reason to use a different symmetry number we print 
out the resulting rotational entropy values for sn=1,12:

 non-linear molecules -----------------------------------
|  sn= 1 | S(rot)=       0.00921847 Eh      5.78 kcal/mol|
|  sn= 2 | S(rot)=       0.00856401 Eh      5.37 kcal/mol|
|  sn= 3 | S(rot)=       0.00818118 Eh      5.13 kcal/mol|
|  sn= 4 | S(rot)=       0.00790956 Eh      4.96 kcal/mol|
|  sn= 5 | S(rot)=       0.00769887 Eh      4.83 kcal/mol|
|  sn= 6 | S(rot)=       0.00752672 Eh      4.72 kcal/mol|
|  sn= 7 | S(rot)=       0.00738118 Eh      4.63 kcal/mol|
|  sn= 8 | S(rot)=       0.00725510 Eh      4.55 kcal/mol|
|  sn= 9 | S(rot)=       0.00714389 Eh      4.48 kcal/mol|
|  sn=10 | S(rot)=       0.00704441 Eh      4.42 kcal/mol|
|  sn=11 | S(rot)=       0.00695442 Eh      4.36 kcal/mol|
|  sn=12 | S(rot)=       0.00687227 Eh      4.31 kcal/mol|
 linear molecules ---------------------------------------
|  Dinfh | S(rot)=       0.00565641 Eh      3.55 kcal/mol|
|  Cinfv | S(rot)=       0.00631086 Eh      3.96 kcal/mol|
 --------------------------------------------------------


-------------------
GIBBS FREE ENERGY
-------------------

The Gibbs free energy is G = H - T*S

Total enthalpy                    ...    -78.80684071 Eh 
Total entropy correction          ...     -0.02869829 Eh    -18.01 kcal/mol
-----------------------------------------------------------------------
Final Gibbs free energy         ...    -78.83553900 Eh

For completeness - the Gibbs free energy minus the electronic energy
G-E(el)                           ...      0.03781893 Eh     23.73 kcal/mol



--------------------------------
SUGGESTED CITATIONS FOR THIS RUN
--------------------------------

Below you find a list of papers that are relevant to this ORCA run
We neither can nor want to force you to cite these papers, but we appreciate if you do
You receive ORCA, which is the product of decades of hard work by many enthusiastic individuals, for free
The only thing we kindly ask in return is that you cite our papers,
We deeply appreciate it, if you show your appreciation for ORCA by not just citing the generic ORCA reference.

Please note that relegating all ORCA citations to the supporting information does *not* help us.
SI sections are not indexed - citations you put there will not count into any citation statistics
But we need these citations in order to attract the funding resources that allow us to do what we are doing

Therefore, if you are a happy ORCA user, please consider citing a few of the papers listed below in the main body of your paper

In addition to the list printed below, the program has created the file ethyl-radical.bibtex that contains the list in bibtex format
You can import this file easily into all common literature databanks and citation aid programs


List of essential papers. We consider these as the minimum necessary citations

  1. Neese, F.
     Software update: the ORCA program system, version 6.0
     WIRES Comput. Molec. Sci. 2025 15(1), e70019
     doi.org/10.1002/wcms.7019

List of papers to cite with high priority. The work reported in these papers was absolutely
necessary for this run to complete.
Our perspective: the developers of density functionals and basis sets usually get cited in chemistry papers
Good! But without the algorithms to do something with them, the functionals or basis sets would not do anything.
Hence, in our opinion, the algorithm design and method developments papers are equally worthy of getting cited

  1. Neese, F.
     The SHARK Integral Generation and Digestion System
     J. Comp. Chem. 2022 44(3), 381
     doi.org/10.1002/jcc.26942

List of suggested additional citations. These are papers that are important in the 'surrounding' of 
of this run, or papers that preceded the highly important papers. If you like your results we are grateful for a citation.

  1. Neese, F.
     The ORCA program system
     WIRES Comput. Molec. Sci. 2012 2(1), 73-78
     doi.org/10.1002/wcms.81
  2. Neese, F.
     Software update: the ORCA program system, version 4.0
     WIRES Comput. Molec. Sci. 2018 8(1), 1-6
     doi.org/10.1002/wcms.1327
  3. Neese, F.; Wennmohs, F.; Becker, U.; Riplinger, C.
     The ORCA quantum chemistry program package
     J. Chem. Phys. 2020 152(22), 224108
     doi.org/10.1063/5.0004608
  4. Neese, F.
     Software update: The ORCA program system—Version 5.0
     WIRES Comput. Molec. Sci. 2022 12(1), e1606
     doi.org/10.1002/wcms.1606

List of optional additional citations

  1. Neese, F.
     Approximate second-order SCF convergence for spin unrestricted wavefunctions
     Chem. Phys. Lett. 2000 325(1-3), 93-98
     doi.org/10.1016/s0009-2614(00)00662-x

Timings for individual modules:

Sum of individual times          ...       86.861 sec (=   1.448 min)
Startup calculation              ...        1.377 sec (=   0.023 min)   1.6 %
SCF iterations                   ...        4.711 sec (=   0.079 min)   5.4 %
Property calculations            ...        0.030 sec (=   0.000 min)   0.0 %
MP2 module                       ...       16.780 sec (=   0.280 min)  19.3 %
Geometry relaxation              ...        0.007 sec (=   0.000 min)   0.0 %
Numerical frequency calculation  ...       63.956 sec (=   1.066 min)  73.6 %
                             ****ORCA TERMINATED NORMALLY****
TOTAL RUN TIME: 0 days 0 hours 1 minutes 25 seconds 779 msec
