
                                 *****************
                                 * O   R   C   A *
                                 *****************

                                            #,                                       
                                            ###                                      
                                            ####                                     
                                            #####                                    
                                            ######                                   
                                           ########,                                 
                                     ,,################,,,,,                         
                               ,,#################################,,                 
                          ,,##########################################,,             
                       ,#########################################, ''#####,          
                    ,#############################################,,   '####,        
                  ,##################################################,,,,####,       
                ,###########''''           ''''###############################       
              ,#####''   ,,,,##########,,,,          '''####'''          '####       
            ,##' ,,,,###########################,,,                        '##       
           ' ,,###''''                  '''############,,,                           
         ,,##''                                '''############,,,,        ,,,,,,###''
      ,#''                                            '''#######################'''  
     '                                                          ''''####''''         
             ,#######,   #######,   ,#######,      ##                                
            ,#'     '#,  ##    ##  ,#'     '#,    #''#        ,####,    ,#,          
            ##       ##  ##   ,#'  ##            #'  '#       #'       ,# #          
            ##       ##  #######   ##           ,######,      #####,      #          
            '#,     ,#'  ##    ##  '#,     ,#' ,#      #,     #,   #      #          
             '#######'   ##     ##  '#######'  #'      '#     '####' #    #          



                #########################################################
                #                        -***-                          #
                #          Department of theory and spectroscopy        #
                #                                                       #
                #                      Frank Neese                      #
                #                                                       #
                #     Directorship, Architecture, Infrastructure        #
                #                    SHARK, DRIVERS                     #
                #        Core code/Algorithms in most modules           #
                #                                                       #
                #        Max Planck Institute fuer Kohlenforschung      #
                #                Kaiser Wilhelm Platz 1                 #
                #                 D-45470 Muelheim/Ruhr                 #
                #                      Germany                          #
                #                                                       #
                #                  All rights reserved                  #
                #                        -***-                          #
                #########################################################


                         Program Version 6.1.0  -  RELEASE   -
                                (GIT: $679e74b$)
                          ($2025-06-10 18:02:51 +0200$)


 With contributions from (in alphabetic order):
[Max-Planck-Institut fuer Kohlenforschung]                               
  Daniel Aravena         : Magnetic Suceptibility                        
  Michael Atanasov       : Ab Initio Ligand Field Theory (pilot matlab implementation)
  Alexander A. Auer      : GIAO ZORA, VPT2 properties, NMR spectrum      
  Ute Becker             : All parallelization in ORCA, NUMFREQ, NUMCALC 
  Giovanni Bistoni       : ED, misc. LED, open-shell LED, HFLD           
  Dmytro Bykov           : pre 5.0 version of the SCF Hessian            
  Marcos Casanova-Páez   : Triplet and SCS-CIS(D). UHF-(DLPNO)-IP/EA/STEOM-CCSD. UHF-CVS-IP/STEOM-CCSD   
  Vijay G. Chilkuri      : MRCI spin determinant printing, contributions to CSF-ICE 
  Pauline Colinet        : FMM embedding                                 
  Dipayan Datta          : RHF DLPNO-CCSD density                        
  Achintya Kumar Dutta   : EOM-CC, STEOM-CC                              
  Nicolas Foglia         : Exact transition moments, OPA infrastructure, MCD improvements    
  Dmitry Ganyushin       : Spin-Orbit,Spin-Spin,Magnetic field MRCI      
  Miquel Garcia-Rates    : C-PCM and meta-GGA Hessian, CCSD/C-PCM, Gaussian charge scheme 
  Tiago L. C. Gouveia    : GS-ROHF, GS-ROCIS                             
  Yang Guo               : DLPNO-NEVPT2, F12-NEVPT2, CIM, IAO-localization        
  Andreas Hansen         : Spin unrestricted coupled pair/coupled cluster methods 
  Ingolf Harden          : AUTO-CI MPn and infrastructure                
  Benjamin Helmich-Paris : MC-RPA, TRAH-(SCF,CASSCF), AVAS, COSX integrals, SCF dyn. polar., MC-PDFT, srDFT 
  Lee Huntington         : MR-EOM, pCC                                   
  Robert Izsak           : Overlap fitted RIJCOSX, COSX-SCS-MP3, EOM     
  Riya Kayal             : Wick's Theorem for AUTO-CI, AUTO-CI UHF-CCSDT 
  Emily Kempfer          : AUTO-CI RHF CISDT and CCSDT, approximate NEVPT4
  Christian Kollmar      : KDIIS, OOCD, Brueckner-CCSD(T), CCSD density, CASPT2, CASPT2-K, improved NEVPT2 
  Axel Koslowski         : Symmetry handling                             
  Simone Kossmann        : meta-GGA functionals, TD-DFT gradient, OOMP2, (MP2 Hessian; deprecated post 5.0) 
  Lucas Lang             : DCDCAS, Hyperfine gauge corrections, ICE-SOC+SSC
  Marvin Lechner         : AUTO-CI (C++ implementation), FIC-MRCC        
  Spencer Leger          : CASSCF response                               
  Dagmar Lenk            : GEPOL surface, SMD, ORCA-2-JSON               
  Dimitrios Liakos       : Extrapolation schemes; Compound Job, Property file
  Dimitrios Manganas     : Further ROCIS development; embedding schemes. LFT, Crystal Embedding 
  Dimitrios Pantazis     : SARC Basis sets                               
  Anastasios Papadopoulos: AUTO-CI, single reference methods and gradients 
  Taras Petrenko         : pre 6.0 DFT Hessian and TD-DFT gradient,  ECA, NRVS 
  Petra Pikulova         : Analytic Raman intensities                    
  Peter Pinski           : DLPNO-MP2, DLPNO-MP2 Gradient                 
  Shashank Vittal Rao    : ES-AILFT, MagRelax                            
  Christoph Reimann      : Effective Core Potentials                     
  Marius Retegan         : Local ZFS, SOC                                
  Christoph Riplinger    : Optimizer, TS searches, QM/MM, DLPNO-CCSD(T), (RO)-DLPNO pert. Triples 
  Michael Roemelt        : Original ROCIS implementation, recursive CI coupling coefficients
  Masaaki Saitow         : Open-shell DLPNO-CCSD energy and density      
  Barbara Sandhoefer     : DKH picture change effects                    
  Yorick L. A. Schmerwitz: GMF and freeze-and-release deltaSCF, NEB S-IDPP initial path                    
  Kantharuban Sivalingam : CASSCF convergence/infrastructure, NEVPT2, NEVPT3, NEVPT4(SD), FIC-MRCI and CEPA variants
  Bernardo de Souza      : ESD, SOC TD-DFT                               
  Georgi L. Stoychev     : AutoAux, RI-MP2 NMR, DLPNO-MP2 response, X2C  
  Van Anh Tran           : RI-MP2 g-tensors                              
  Willem Van den Heuvel  : Paramagnetic NMR                              
  Zikuan Wang            : NOTCH, Electric field optimization            
  Frank Wennmohs         : Technical directorship and infrastructure     
  Hang Xu                : AUTO-CI-Response properties                   
                                                                         
[FACCTs GmbH]                                                            
  Markus Bursch, Nicolas Foglia, Miquel Garcia-Rates, Ingolf Harden, Hagen Neugebauer, Anastasios Papadopoulos, 
  Christoph Riplinger, Bernardo de Souza, Georgi L. Stoychev                                                    
                                                                 
  APM, various basis sets, CI-OPT, improved COSX, DLPNO-Multilevel,           
  DOCKER, DRACO, updates on ESD, Fragmentator, GOAT, IRC, LR-CPCM, L-BFGS, MBIS, meta-GGA TD-DFT gradient, ML-optimized integration grids, 
  MM, NACMEs, nearIR, NEB, NEB-TS, NL-DFT gradient (VV10), 2- and 3-layer-ONIOM, interface openCOSMO-RS, QMMM,   
  Crystal-QMMM, RESP, rigid body optimization, SF, symmetry and pop. for TD-DFT, various functionals, SOLVATOR                                   
                                                                         
[Other institutions]                                                     
  V. Asgeirsson          : NEB                                           
  Christoph Bannwarth    : sTDA-DFT, sTD-DFT, PBEh-3c, B97-3c, D3        
  Giovanni Bistoni       : ETS/NOCV, ADLD/ADEX, COVALED                  
  Martin Brehm           : Molecular dynamics                            
  Ronald Cardenas        : ETS/NOCV                                      
  Martina Colucci        : COVALED                                       
  Sebastian Ehlert       : rSCAN, r2SCAN, r2SCAN-3c, D4, dhf basis sets  
  Marvin Friede          : D4 for Fr, Ra, Ac-Lr                          
  Lars Goerigk           : TD-DFT with DH, B97 family of functionals     
  Stefan Grimme          : VdW corrections, initial TS optimization, DFT functionals, gCP, sTDA/sTD-DF 
  Waldemar Hujo          : DFT-NL                                        
  H. Jonsson             : NEB                                           
  Holger Kruse           : gCP                                           
  Marcel Mueller         : wB97X-3c, vDZP basis set                      
  Hagen Neugebauer       : wr2SCAN, Native XTB                           
  Gianluca Regni         : ADLD/ADEX                                     
  Tobias Risthaus        : pre 6.0 range-separated hybrid DFT and stability analysis
  Lukas Wittmann         : regularized MP2, r2SCAN double-hybrids, wr2SCAN        
                                                                         
We gratefully acknowledge several colleagues who have allowed us to      
interface, adapt or use parts of their codes:                            
  Ed Valeev, F. Pavosevic, A. Kumar             : LibInt (2-el integral package), F12 methods 
  Garnet Chan, S. Sharma, J. Yang, R. Olivares  : DMRG                   
  Ulf Ekstrom                                   : XCFun DFT Library      
  Mihaly Kallay                                 : mrcc  (arbitrary order and MRCC methods)
  Frank Weinhold                                : gennbo (NPA and NBO analysis)           
  Simon Mueller                                 : openCOSMO-RS                            
  Christopher J. Cramer and Donald G. Truhlar   : smd solvation model                     
  S Lehtola, MJT Oliveira, MAL Marques          : LibXC Library                           
  Liviu Ungur et al                             : ANISO software                          


 Your calculation uses the libint2 library for the computation of 2-el integrals
 For citations please refer to: http://libint.valeyev.net

 Your ORCA version has been built with support for libXC version: 7.0.0
 For citations please refer to: https://libxc.gitlab.io

 This ORCA versions uses:
   CBLAS   interface :  Fast vector & matrix operations
   LAPACKE interface :  Fast linear algebra routines
   SCALAPACK package :  Parallel linear algebra routines
   Shared memory     :  Shared parallel matrices
   BLAS/LAPACK       :  OpenBLAS 0.3.29  USE64BITINT DYNAMIC_ARCH NO_AFFINITY Haswell SINGLE_THREADED
        Core in use  :  Haswell
   Copyright (c) 2011-2014, The OpenBLAS Project


  ***********************************
  * Starting time: Sun Aug 10 15:13:22 2025
  * Host name:     CHEMLAB02
  * Process ID:    1479730
  * Working dir.:  /home/vivek/mm/lab5
  ***********************************



***************************************
The coordinates will be read from file: hydrogen-bond-input-coordinates.xyz
***************************************


================================================================================

----- Orbital basis set information -----
Your calculation utilizes the basis: 6-31G**
   H-He, Li-Ne : W. J. Hehre, R. Ditchfield and J.A. Pople, J. Chem. Phys. 56, 2257 (1972).
                 Note: He and Ne are unpublished basis sets taken from the Gaussian program.
                 Note: Li and B from J. D. Dill and J. A. Pople, J. Chem. Phys. 62, 2921 (1975).
   Na - Ar     : M. M. Francl, W. J. Pietro, W. J. Hehre, J. S. Binkley, M. S. Gordon, 
                 D. J. DeFrees and J. A. Pople, J. Chem. Phys. 77, 3654 (1982).
   K - Zn      : V. A. Rassolov, J. A. Pople, M. A. Ratner, and T. L. Windus, J. Chem. Phys. 109, 1223 (1998).

================================================================================
                                        WARNINGS
                       Please study these warnings very carefully!
================================================================================


WARNING: The frozen-core approximation for MP2-gradient calculations is turned on by default.

WARNING: Geometry Optimization
  ===> : Switching off AutoStart
         For restart on a previous wavefunction, please use MOREAD

WARNING: Post HF methods need fully converged wavefunctions
  ===> : Setting SCFConvForced true
         You can overwrite this default with %scf ConvForced false 


================================================================================
                                       INPUT FILE
================================================================================
NAME = hydrogen-bond.inp
|  1> ! MP2 6-31G** opt numfreq
|  2> 
|  3> * xyzfile 0 1 hydrogen-bond-input-coordinates.xyz
|  4> 
|  5>                          ****END OF INPUT****
================================================================================

                       *****************************
                       * Geometry Optimization Run *
                       *****************************

Geometry optimization settings:
Update method            Update   .... BFGS
Choice of coordinates    CoordSys .... (2022) Redundant Internals
Initial Hessian          InHess   .... Almloef's Model
Max. no of cycles        MaxIter  .... 50

Convergence Tolerances:
Energy Change            TolE     ....  5.0000e-06 Eh
Max. Gradient            TolMAXG  ....  3.0000e-04 Eh/bohr
RMS Gradient             TolRMSG  ....  1.0000e-04 Eh/bohr
Max. Displacement        TolMAXD  ....  4.0000e-03 bohr
RMS Displacement         TolRMSD  ....  2.0000e-03 bohr
Strict Convergence                .... False

------------------------------------------------------------------------------
                        ORCA OPTIMIZATION COORDINATE SETUP
------------------------------------------------------------------------------

The optimization will be done in redundant internal coordinates (2022)
Making redundant internal coordinates   ...  (2022 redundants) done
Evaluating the initial hessian          ...  (Almloef) done
Evaluating the coordinates              ...  done
Calculating the B-matrix                .... done
Calculating the G-matrix                .... done
The number of degrees of freedom        ....   22

    -----------------------------------------------------------------
                    Redundant Internal Coordinates


    -----------------------------------------------------------------
         Definition                    Initial Value    Approx d2E/dq
    -----------------------------------------------------------------
      1. B(H   1,O   0)                  0.9500         0.539412   
      2. B(H   2,O   0)                  0.9500         0.539412   
      3. B(O   3,H   2)                  1.8981         0.016570   
      4. B(H   4,O   3)                  0.9500         0.539412   
      5. B(H   5,O   0)                  2.2353         0.010000   
      6. B(H   5,H   2)                  1.3598         0.025592   
      7. B(H   5,O   3)                  0.9500         0.539412   
      8. A(H   1,O   0,H   2)          109.4711         0.325738   
      9. A(O   0,H   2,H   5)          150.3445         0.185074   
     10. A(O   3,H   2,H   5)           28.2005         0.132677   
     11. A(O   0,H   2,O   3)          139.5693         0.196625   
     12. A(H   2,O   3,H   4)          138.9806         0.196625   
     13. A(H   2,O   3,H   5)           42.5617         0.196625   
     14. A(H   4,O   3,H   5)          109.4712         0.325738   
     15. A(H   2,H   5,O   3)          109.2378         0.185074   
     16. D(H   5,H   2,O   0,H   1)    -63.4731         0.421890   
     17. D(O   3,H   2,O   0,H   1)   -110.2355         0.421890   
     18. D(H   4,O   3,H   2,O   0)   -169.7732         0.010000   
     19. D(H   5,O   3,H   2,O   0)    130.2899         0.010000   
     20. D(H   4,O   3,H   2,H   5)     59.9369         0.010000   
     21. D(H   2,H   5,O   3,H   4)   -142.9522         0.421891   
     22. D(O   3,H   5,H   2,O   0)    -88.8552         0.010138   
    -----------------------------------------------------------------

Number of atoms                         .... 6
Number of degrees of freedom            .... 22


         *************************************************************
         *                GEOMETRY OPTIMIZATION CYCLE   1            *
         *************************************************************
---------------------------------
CARTESIAN COORDINATES (ANGSTROEM)
---------------------------------
  O     -1.424860    1.664869    0.000000
  H     -2.058755    1.481977   -0.683541
  H     -1.435595    2.593151    0.201688
  O     -0.337681    4.128269   -0.000003
  H     -0.303322    5.029245    0.299266
  H     -1.240013    3.885873   -0.171879

----------------------------
CARTESIAN COORDINATES (A.U.)
----------------------------
  NO LB      ZA    FRAG     MASS         X           Y           Z
   0 O     8.0000    0    15.999   -2.692595    3.146146    0.000000
   1 H     1.0000    0     1.008   -3.890483    2.800531   -1.291705
   2 H     1.0000    0     1.008   -2.712881    4.900345    0.381135
   3 O     8.0000    0    15.999   -0.638125    7.801298   -0.000006
   4 H     1.0000    0     1.008   -0.573196    9.503896    0.565531
   5 H     1.0000    0     1.008   -2.343285    7.343236   -0.324804

--------------------------------
INTERNAL COORDINATES (ANGSTROEM)
--------------------------------
 O      0   0   0     0.000000000000     0.00000000     0.00000000
 H      1   0   0     0.950000343879     0.00000000     0.00000000
 H      1   2   0     0.950000400575   109.47114905     0.00000000
 O      3   1   2     1.898073150540   139.56933982   249.76449886
 H      4   3   1     0.950000119904   138.98055184   190.22678018
 H      4   3   1     0.950000114956    42.56169959   130.28985465

---------------------------
INTERNAL COORDINATES (A.U.)
---------------------------
 O      0   0   0     0.000000000000     0.00000000     0.00000000
 H      1   0   0     1.795240477062     0.00000000     0.00000000
 H      1   2   0     1.795240584203   109.47114905     0.00000000
 O      3   1   2     3.586838436670   139.56933982   249.76449886
 H      4   3   1     1.795240053811   138.98055184   190.22678018
 H      4   3   1     1.795240044460    42.56169959   130.28985465

---------------------
BASIS SET INFORMATION
---------------------
There are 2 groups of distinct atoms

 Group   1 Type O   : 10s4p1d contracted to 3s2p1d pattern {631/31/1}
 Group   2 Type H   : 4s1p contracted to 2s1p pattern {31/1}

Atom   0O    basis set group =>   1
Atom   1H    basis set group =>   2
Atom   2H    basis set group =>   2
Atom   3O    basis set group =>   1
Atom   4H    basis set group =>   2
Atom   5H    basis set group =>   2
------------------------------------------------------------------------------
                             ORCA STARTUP CALCULATIONS
------------------------------------------------------------------------------
------------------------------------------------------------------------------
                   ___                                                        
                  /   \      - P O W E R E D   B Y -                         
                 /     \                                                     
                 |  |  |   _    _      __       _____    __    __             
                 |  |  |  | |  | |    /  \     |  _  \  |  |  /  |          
                  \  \/   | |  | |   /    \    | | | |  |  | /  /          
                 / \  \   | |__| |  /  /\  \   | |_| |  |  |/  /          
                |  |  |   |  __  | /  /__\  \  |    /   |      \           
                |  |  |   | |  | | |   __   |  |    \   |  |\   \          
                \     /   | |  | | |  |  |  |  | |\  \  |  | \   \       
                 \___/    |_|  |_| |__|  |__|  |_| \__\ |__|  \__/        
                                                                              
                      - O R C A' S   B I G   F R I E N D -                    
                                      &                                       
                       - I N T E G R A L  F E E D E R -                       
                                                                              
 v1 FN, 2020, v2 2021, v3 2022-2024                                           
------------------------------------------------------------------------------


----------------------
SHARK INTEGRAL PACKAGE
----------------------

Number of atoms                             ...      6
Number of basis functions                   ...     48
Number of shells                            ...     24
Maximum angular momentum                    ...      2
Integral batch strategy                     ... SHARK/LIBINT Hybrid
RI-J (if used) integral strategy            ... SPLIT-RIJ (Revised 2003 algorithm where possible)
Printlevel                                  ...      1
Contraction scheme used                     ... SEGMENTED contraction
Prescreening option                         ... SCHWARTZ
   Thresh                                   ... 2.500e-11
   Tcut                                     ... 2.500e-12
   Tpresel                                  ... 2.500e-12 
Coulomb Range Separation                    ... NOT USED
Exchange Range Separation                   ... NOT USED
Multipole approximations                    ... NOT USED
Finite Nucleus Model                        ... NOT USED
CABS basis                                  ... NOT available
Auxiliary Coulomb fitting basis             ... NOT available
Auxiliary J/K fitting basis                 ... NOT available
Auxiliary Correlation fitting basis         ... NOT available
Auxiliary 'external' fitting basis          ... NOT available

Checking pre-screening integrals            ... done (  0.0 sec) Dimension = 24
   => SHARK Basis and OBASIS are compatible. Storing Pre-screening
Shell pair information
Shell pair cut-off parameter TPreSel        ...   2.5e-12
Total number of shell pairs                 ...       300
Shell pairs after pre-screening             ...       295
Total number of primitive shell pairs       ...      1329
Primitive shell pairs kept                  ...      1075
          la=0 lb=0:    103 shell pairs
          la=1 lb=0:    110 shell pairs
          la=1 lb=1:     35 shell pairs
          la=2 lb=0:     28 shell pairs
          la=2 lb=1:     16 shell pairs
          la=2 lb=2:      3 shell pairs

Checking whether 4 symmetric matrices of dimension 48 fit in memory
:Max Core in MB      =   4096.00
 MB in use           =      1.58
 MB left             =   4094.42
 MB needed           =      0.04
 Data fit in memory  = YES
Calculating Nuclear repulsion               ... done (  0.0 sec) ENN=     38.629416484134 Eh

Diagonalization of the overlap matrix:
Smallest eigenvalue                        ... 2.436e-02
Time for diagonalization                   ...    0.001 sec
Threshold for overlap eigenvalues          ... 1.000e-07
Number of eigenvalues below threshold      ... 0
Time for construction of square roots      ...    0.000 sec
Total time needed                          ...    0.002 sec

-------------------
DFT GRID GENERATION
-------------------

General Integration Accuracy     IntAcc      ... 4.388
Radial Grid Type                 RadialGrid  ... OptM3 with GC (2021)
Angular Grid (max. ang.)         AngularGrid ... 4 (Lebedev-302)
Angular grid pruning method      GridPruning ... 4 (adaptive)
Weight generation scheme         WeightScheme... mBecke (2022)
Basis function cutoff            BFCut       ... 1.0000e-11
Integration weight cutoff        WCut        ... 1.0000e-14
Partially contracted basis set               ... off
Rotationally invariant grid construction     ... off
Angular grids for H and He will be reduced by one unit

Total number of grid points                  ...    25394
Total number of batches                      ...      399
Average number of points per batch           ...       63
Average number of grid points per atom       ...     4232
Grids setup in   0.1 sec
Initializing property integral containers    ... done (  0.0 sec)

SHARK setup successfully completed in   0.1 seconds

Maximum memory used throughout the entire STARTUP-calculation: 9.4 MB
-------------------------------------------------------------------------------
                                 ORCA GUESS
                   Start orbitals & Density for SCF / CASSCF
-------------------------------------------------------------------------------

------------
SCF SETTINGS
------------
Hamiltonian:
 Ab initio Hamiltonian  Method          .... Hartree-Fock(GTOs)


General Settings:
 Integral files         IntName         .... hydrogen-bond
 Hartree-Fock type      HFTyp           .... RHF
 Total Charge           Charge          ....    0
 Multiplicity           Mult            ....    1
 Number of Electrons    NEL             ....   20
 Basis Dimension        Dim             ....   48
 Nuclear Repulsion      ENuc            ....     38.6294164841 Eh

Convergence Acceleration:
 AO-DIIS                CNVDIIS         .... on
   Start iteration      DIISMaxIt       ....    12
   Startup error        DIISStart       ....  0.200000
   # of expansion vecs  DIISMaxEq       ....     5
   Bias factor          DIISBfac        ....   1.050
   Max. coefficient     DIISMaxC        ....  10.000
 MO-DIIS                CNVKDIIS        .... off
 Trust-Rad. Augm. Hess. CNVTRAH         .... auto
   Auto Start mean grad. ratio tolernc. ....  1.125000
   Auto Start start iteration           ....    50
   Auto Start num. interpolation iter.  ....    10
   Max. Number of Micro iterations      ....    24
   Max. Number of Macro iterations      .... Maxiter - #DIIS iter
   Number of Davidson start vectors     ....     2
   Converg. threshold    (grad. norm)   ....   1.000e-05
   Grad. Scal. Fac. for Micro threshold ....   0.100
   Minimum threshold for Micro iter.    ....   1.000e-02
   NR start threshold (gradient norm)   ....   1.000e-04
   Initial trust radius                 ....   0.400
   Minimum AH scaling param. (alpha)    ....   1.000
   Maximum AH scaling param. (alpha)    .... 1000.000
   Quad. conv. algorithm                .... NR
   White noise on init. David. guess    .... on
   Maximum white noise                  ....   0.010
   Pseudo random numbers                .... off
   Inactive MOs                         .... canonical
   Orbital update algorithm             .... Taylor
   Preconditioner                       .... Diag
   Full preconditioner red. dimension   ....   250
 SOSCF                 CNVSOSCF           .... on
   Start iteration     SOSCFMaxIt         ....   150
   Startup grad/error  SOSCFStart         ....  0.003300
   Hessian update      SOSCFHessUp        .... L-BFGS
   Autom. constraints  SOSCFAutoConstrain .... off
 Level Shifting         CNVShift        .... on
   Level shift para.    LevelShift      ....    0.2500
   Turn off err/grad.   ShiftErr        ....    0.0010
 Zerner damping         CNVZerner       .... off
 Static damping         CNVDamp         .... on
   Fraction old density DampFac         ....    0.7000
   Max. Damping (<1)    DampMax         ....    0.9800
   Min. Damping (>=0)   DampMin         ....    0.0000
   Turn off err/grad.   DampErr         ....    0.1000

SCF Procedure:
 Maximum # iterations   MaxIter         ....   125
 SCF integral mode      SCFMode         .... Direct
   Integral package                     .... SHARK and LIBINT hybrid scheme
 Reset frequency        DirectResetFreq ....    20
 Integral Threshold     Thresh          ....  2.500e-11 Eh
 Primitive CutOff       TCut            ....  2.500e-12 Eh

Convergence Tolerance:
 Convergence Check Mode ConvCheckMode   .... Total+1el-Energy
 Convergence forced     ConvForced      .... 1
 Energy Change          TolE            ....  1.000e-08 Eh
 1-El. energy change                    ....  1.000e-05 Eh
 Orbital Gradient       TolG            ....  1.000e-05
 Orbital Rotation angle TolX            ....  1.000e-05
 DIIS Error             TolErr          ....  5.000e-07

------------------------------
INITIAL GUESS: MODEL POTENTIAL
------------------------------
Loading Hartree-Fock densities                     ... done
Calculating cut-offs                               ... done
Initializing the effective Hamiltonian             ... done
Setting up the integral package (SHARK)            ... done
Starting the Coulomb interaction                   ... done (   0.0 sec)
Making the grid                                    ... done (   0.0 sec)
Mapping shells                                     ... done
Starting the XC term evaluation                    ... done (   0.0 sec)
Transforming the Hamiltonian                       ... done (   0.0 sec)
Diagonalizing the Hamiltonian                      ... done (   0.0 sec)
Back transforming the eigenvectors                 ... done (   0.0 sec)
Now organizing SCF variables                       ... done
                      ------------------
                      INITIAL GUESS DONE (   0.0 sec)
                      ------------------
             **** ENERGY FILE WAS UPDATED (hydrogen-bond.en.tmp) ****
Finished Guess after   0.0 sec
Maximum memory used throughout the entire GUESS-calculation: 4.0 MB

-------------------------------------------------------------------------------------------
                                      ORCA LEAN-SCF
                              memory conserving SCF solver
-------------------------------------------------------------------------------------------

----------------------------------------D-I-I-S--------------------------------------------
Iteration    Energy (Eh)           Delta-E    RMSDP     MaxDP     DIISErr   Damp  Time(sec)
-------------------------------------------------------------------------------------------
               ***  Starting incremental Fock matrix formation  ***
    1    -151.8475057993613575     0.00e+00  6.09e-03  6.61e-02  3.02e-01  0.700   0.0
    2    -151.9174110963464557    -6.99e-02  4.18e-03  4.54e-02  1.80e-01  0.700   0.0
                               ***Turning on AO-DIIS***
    3    -151.9549583652055276    -3.75e-02  1.66e-03  1.98e-02  9.86e-02  0.700   0.0
    4    -151.9776685989838541    -2.27e-02  3.41e-03  4.20e-02  6.66e-02  0.000   0.0
    5    -152.0265244548282908    -4.89e-02  3.89e-04  3.00e-03  4.27e-03  0.000   0.0
                              *** Initializing SOSCF ***
---------------------------------------S-O-S-C-F--------------------------------------
Iteration    Energy (Eh)           Delta-E    RMSDP     MaxDP     MaxGrad    Time(sec)
--------------------------------------------------------------------------------------
    6    -152.0266242533460002    -9.98e-05  2.25e-04  1.65e-03  1.99e-03     0.0
               *** Restarting incremental Fock matrix formation ***
    7    -152.0266473301934980    -2.31e-05  9.47e-05  7.65e-04  5.20e-04     0.0
    8    -152.0266500471524864    -2.72e-06  6.32e-05  4.50e-04  1.99e-04     0.0
    9    -152.0266506435766303    -5.96e-07  8.10e-06  8.28e-05  5.21e-05     0.0
   10    -152.0266506613733100    -1.78e-08  2.62e-06  2.61e-05  1.75e-05     0.0
   11    -152.0266506644774722    -3.10e-09  8.83e-07  1.02e-05  3.30e-06     0.0
                 **** Energy Check signals convergence ****

               *****************************************************
               *                     SUCCESS                       *
               *           SCF CONVERGED AFTER  11 CYCLES          *
               *****************************************************

             **** ENERGY FILE WAS UPDATED (hydrogen-bond.en.tmp) ****

----------------
TOTAL SCF ENERGY
----------------

Total Energy       :       -152.02665066464996 Eh           -4136.85548 eV

Components:
Nuclear Repulsion  :         38.62941648413426 Eh            1051.15986 eV
Electronic Energy  :       -190.65606714878422 Eh           -5188.01534 eV
One Electron Energy:       -286.42683487368959 Eh           -7794.07042 eV
Two Electron Energy:         95.77076772490537 Eh            2606.05508 eV

Virial components:
Potential Energy   :       -303.94933172480648 Eh           -8270.88180 eV
Kinetic Energy     :        151.92268106015655 Eh            4134.02632 eV
Virial Ratio       :          2.00068435867356

---------------
SCF CONVERGENCE
---------------

  Last Energy change         ...    3.1042e-09  Tolerance :   1.0000e-08
  Last MAX-Density change    ...    1.0186e-05  Tolerance :   1.0000e-07
  Last RMS-Density change    ...    8.8334e-07  Tolerance :   5.0000e-09
  Last DIIS Error            ...    1.9918e-03  Tolerance :   5.0000e-07
  Last Orbital Gradient      ...    3.3041e-06  Tolerance :   1.0000e-05
  Last Orbital Rotation      ...    4.3434e-06  Tolerance :   1.0000e-05


----------------
ORBITAL ENERGIES
----------------

  NO   OCC          E(Eh)            E(eV) 
   0   2.0000     -20.578245      -559.9625 
   1   2.0000     -20.548794      -559.1611 
   2   2.0000      -1.371473       -37.3197 
   3   2.0000      -1.334702       -36.3191 
   4   2.0000      -0.771208       -20.9856 
   5   2.0000      -0.692984       -18.8571 
   6   2.0000      -0.584230       -15.8977 
   7   2.0000      -0.553544       -15.0627 
   8   2.0000      -0.517765       -14.0891 
   9   2.0000      -0.489704       -13.3255 
  10   0.0000       0.187537         5.1032 
  11   0.0000       0.253526         6.8988 
  12   0.0000       0.302121         8.2211 
  13   0.0000       0.426465        11.6047 
  14   0.0000       0.983611        26.7654 
  15   0.0000       1.015234        27.6259 
  16   0.0000       1.043876        28.4053 
  17   0.0000       1.075771        29.2732 
  18   0.0000       1.109081        30.1796 
  19   0.0000       1.165165        31.7057 
  20   0.0000       1.205935        32.8152 
*Only the first 10 virtual orbitals were printed.

                    ********************************
                    * MULLIKEN POPULATION ANALYSIS *
                    ********************************

-----------------------
MULLIKEN ATOMIC CHARGES
-----------------------
   0 O :   -0.688070
   1 H :    0.332762
   2 H :    0.351948
   3 O :   -0.657930
   4 H :    0.351853
   5 H :    0.309437
Sum of atomic charges:    0.0000000

--------------------------------
MULLIKEN REDUCED ORBITAL CHARGES
--------------------------------
  0 O s       :     3.799455  s :     3.799455
      pz      :     1.660925  p :     4.869238
      px      :     1.738220
      py      :     1.470093
      dz2     :     0.003309  d :     0.019377
      dxz     :     0.006179
      dyz     :     0.000303
      dx2y2   :     0.008312
      dxy     :     0.001275

  1 H s       :     0.623854  s :     0.623854
      pz      :     0.018319  p :     0.043384
      px      :     0.017057
      py      :     0.008008

  2 H s       :     0.603869  s :     0.603869
      pz      :     0.010216  p :     0.044183
      px      :     0.009466
      py      :     0.024501

  3 O s       :     3.799112  s :     3.799112
      pz      :     1.895421  p :     4.839173
      px      :     1.475945
      py      :     1.467807
      dz2     :     0.002727  d :     0.019645
      dxz     :     0.001620
      dyz     :     0.002069
      dx2y2   :     0.012113
      dxy     :     0.001115

  4 H s       :     0.604682  s :     0.604682
      pz      :     0.012302  p :     0.043465
      px      :     0.007003
      py      :     0.024160

  5 H s       :     0.646199  s :     0.646199
      pz      :     0.011981  p :     0.044364
      px      :     0.022838
      py      :     0.009545



                     *******************************
                     * LOEWDIN POPULATION ANALYSIS *
                     *******************************

----------------------
LOEWDIN ATOMIC CHARGES
----------------------
   0 O :   -0.320522
   1 H :    0.161995
   2 H :    0.145589
   3 O :   -0.306078
   4 H :    0.171212
   5 H :    0.147804

-------------------------------
LOEWDIN REDUCED ORBITAL CHARGES
-------------------------------
  0 O s       :     3.479119  s :     3.479119
      pz      :     1.646862  p :     4.813763
      px      :     1.714666
      py      :     1.452235
      dz2     :     0.004407  d :     0.027641
      dxz     :     0.009411
      dyz     :     0.000793
      dx2y2   :     0.012169
      dxy     :     0.000861

  1 H s       :     0.710191  s :     0.710191
      pz      :     0.053328  p :     0.127814
      px      :     0.050603
      py      :     0.023884

  2 H s       :     0.715918  s :     0.715918
      pz      :     0.031005  p :     0.138493
      px      :     0.029709
      py      :     0.077779

  3 O s       :     3.484740  s :     3.484740
      pz      :     1.858831  p :     4.792840
      px      :     1.482448
      py      :     1.451562
      dz2     :     0.003976  d :     0.028498
      dxz     :     0.001426
      dyz     :     0.003132
      dx2y2   :     0.018358
      dxy     :     0.001607

  4 H s       :     0.700820  s :     0.700820
      pz      :     0.037210  p :     0.127968
      px      :     0.021890
      py      :     0.068868

  5 H s       :     0.719037  s :     0.719037
      pz      :     0.035588  p :     0.133159
      px      :     0.069666
      py      :     0.027905



                      *****************************
                      * MAYER POPULATION ANALYSIS *
                      *****************************

  NA   - Mulliken gross atomic population
  ZA   - Total nuclear charge
  QA   - Mulliken gross atomic charge
  VA   - Mayer's total valence
  BVA  - Mayer's bonded valence
  FA   - Mayer's free valence

  ATOM       NA         ZA         QA         VA         BVA        FA
  0 O      8.6881     8.0000    -0.6881     1.7516     1.7516     0.0000
  1 H      0.6672     1.0000     0.3328     0.8840     0.8840    -0.0000
  2 H      0.6481     1.0000     0.3519     0.8824     0.8824    -0.0000
  3 O      8.6579     8.0000    -0.6579     1.7796     1.7796     0.0000
  4 H      0.6481     1.0000     0.3519     0.8722     0.8722     0.0000
  5 H      0.6906     1.0000     0.3094     0.9082     0.9082     0.0000

  Mayer bond orders larger than 0.100000
B(  0-O ,  1-H ) :   0.8846 B(  0-O ,  2-H ) :   0.8413 B(  3-O ,  4-H ) :   0.8690 
B(  3-O ,  5-H ) :   0.8767 

-------
TIMINGS
-------

Total SCF time: 0 days 0 hours 0 min 0 sec 

Total time                  ....       0.206 sec
Sum of individual times     ....       0.189 sec  ( 91.5%)

SCF preparation             ....       0.014 sec  (  6.9%)
Fock matrix formation       ....       0.169 sec  ( 81.8%)
  Startup                   ....       0.000 sec  (  0.1% of F)
  Coulomb+Exchange Fock     ....       0.181 sec  (107.0% of F)
Diagonalization             ....       0.000 sec  (  0.0%)
Density matrix formation    ....       0.001 sec  (  0.4%)
Total Energy calculation    ....       0.000 sec  (  0.1%)
Population analysis         ....       0.001 sec  (  0.3%)
Orbital Transformation      ....       0.000 sec  (  0.2%)
Orbital Orthonormalization  ....       0.000 sec  (  0.0%)
DIIS solution               ....       0.003 sec  (  1.3%)
SOSCF solution              ....       0.001 sec  (  0.5%)
Finished LeanSCF after   0.2 sec

Maximum memory used throughout the entire LEANSCF-calculation: 7.5 MB

------------------------------------------------------------------------------
                                ORCA  MP2 
------------------------------------------------------------------------------

Freezing NCore=4 chemical core electrons
MP2 will be done in the AO integral direct mode
The Q1-step will be done using symmetric double matrices
Dimension of the basis                    ...   48
Memory devoted for MP2                    ... 4096 MB   
Memory needed for all in one shot         ...    4 MB
Number of MOs that can be treated together... 9509      
MP2 density construction                  ... relaxed
The MP2 gradient is requested => amplitudes will be stored on disk
Total number of MOs              ...    8
Number of MOs treated per batch  ...    8 
Number of batches necessary      ...    1 
OPERATORS   0/  0 PASS   0
-----------------------------------------------
 MP2 CORRELATION ENERGY   :     -0.392547507 Eh
-----------------------------------------------


---------------------
MP2 DENSITY FORMATION
---------------------

Completing the external part of the density      ... done
Storing the unrelaxed density                    ... done

Calculating G(D)                                 ... done
Completing the Lagrangian                        ... done
Solving the Z-vector equations                   ... 
-------------------
SHARK CP-SCF DRIVER
-------------------

Dimension of the orbital basis          ...     48
Dimension of the CPSCF-problem          ...    380
Number of operators                     ...      1
Max. number of iterations               ...    128
Convergence Tolerance                   ... 1.0e-04
Number of perturbations                 ...      1
Perturbation type                       ... REAL

----------------------------
POPLE LINEAR EQUATION SOLVER
----------------------------

  ITERATION   0:   ||err||_max =   3.2085e-02 (   0.0 sec)
  ITERATION   1:   ||err||_max =   7.7518e-03 (   0.0 sec)
  ITERATION   2:   ||err||_max =   1.3168e-03 (   0.0 sec)
  ITERATION   3:   ||err||_max =   2.9822e-04 (   0.0 sec)
  ITERATION   4:   ||err||_max =   7.4809e-05 (   0.0 sec)
                                                 ... done
Finalizing the relaxed density                   ... done
Transforming P to the AO basis                   ... done
Storing the relaxed density                      ... done

------------------------------------
ENERGY WEIGHTED DENSITY FINALIZATION
------------------------------------

Gathering the parts of the W-matrix              ...                                                      done
Forming the Z-density                            ... done
Transforming Z to the AO basis                   ... done
Calculating G(Z)                                 ... done
Finalizing the W-matrix                          ...                                                      done
Transforming W to the AO basis and storing       ... done

                *********************************************
                * UNRELAXED MP2 DENSITY POPULATION ANALYSIS *
                *********************************************

------------------------------------------------------------------------------
                           ORCA POPULATION ANALYSIS
------------------------------------------------------------------------------
Input electron density              ... hydrogen-bond.pmp2ur
BaseName (.gbw .S,...)              ... hydrogen-bond

                    ********************************
                    * MULLIKEN POPULATION ANALYSIS *
                    ********************************

-----------------------
MULLIKEN ATOMIC CHARGES
-----------------------
   0 O :   -0.682824
   1 H :    0.330516
   2 H :    0.348815
   3 O :   -0.652612
   4 H :    0.349649
   5 H :    0.306456
Sum of atomic charges:    0.0000000

--------------------------------
MULLIKEN REDUCED ORBITAL CHARGES
--------------------------------
  0 O s       :     3.796310  s :     3.796310
      pz      :     1.652988  p :     4.845692
      px      :     1.729782
      py      :     1.462923
      dz2     :     0.007643  d :     0.040821
      dxz     :     0.010401
      dyz     :     0.004645
      dx2y2   :     0.012501
      dxy     :     0.005631
  1 H s       :     0.624710  s :     0.624710
      pz      :     0.018668  p :     0.044773
      px      :     0.017495
      py      :     0.008610
  2 H s       :     0.605320  s :     0.605320
      pz      :     0.010875  p :     0.045865
      px      :     0.010223
      py      :     0.024767
  3 O s       :     3.795991  s :     3.795991
      pz      :     1.886200  p :     4.815475
      px      :     1.468536
      py      :     1.460739
      dz2     :     0.007086  d :     0.041146
      dxz     :     0.005970
      dyz     :     0.006449
      dx2y2   :     0.016214
      dxy     :     0.005427
  4 H s       :     0.605598  s :     0.605598
      pz      :     0.012920  p :     0.044753
      px      :     0.007641
      py      :     0.024192
  5 H s       :     0.647506  s :     0.647506
      pz      :     0.012715  p :     0.046038
      px      :     0.023030
      py      :     0.010294


                     *******************************
                     * LOEWDIN POPULATION ANALYSIS *
                     *******************************

----------------------
LOEWDIN ATOMIC CHARGES
----------------------
   0 O :   -0.316601
   1 H :    0.160255
   2 H :    0.143328
   3 O :   -0.301998
   4 H :    0.169559
   5 H :    0.145458

-------------------------------
LOEWDIN REDUCED ORBITAL CHARGES
-------------------------------
  0 O s       :     3.476798  s :     3.476798
      pz      :     1.638915  p :     4.790085
      px      :     1.706262
      py      :     1.444908
      dz2     :     0.008765  d :     0.049719
      dxz     :     0.014068
      dyz     :     0.005059
      dx2y2   :     0.016798
      dxy     :     0.005029
  1 H s       :     0.709122  s :     0.709122
      pz      :     0.054381  p :     0.130623
      px      :     0.051677
      py      :     0.024565
  2 H s       :     0.715146  s :     0.715146
      pz      :     0.031754  p :     0.141526
      px      :     0.030532
      py      :     0.079241
  3 O s       :     3.482481  s :     3.482481
      pz      :     1.849880  p :     4.768869
      px      :     1.474768
      py      :     1.444222
      dz2     :     0.008515  d :     0.050647
      dxz     :     0.005698
      dyz     :     0.007578
      dx2y2   :     0.023082
      dxy     :     0.005774
  4 H s       :     0.699835  s :     0.699835
      pz      :     0.037949  p :     0.130606
      px      :     0.022578
      py      :     0.070079
  5 H s       :     0.718178  s :     0.718178
      pz      :     0.036368  p :     0.136364
      px      :     0.071237
      py      :     0.028759


                      *****************************
                      * MAYER POPULATION ANALYSIS *
                      *****************************

  NA   - Mulliken gross atomic population
  ZA   - Total nuclear charge
  QA   - Mulliken gross atomic charge
  VA   - Mayer's total valence
  BVA  - Mayer's bonded valence
  FA   - Mayer's free valence

  ATOM       NA         ZA         QA         VA         BVA        FA
  0 O      8.6828     8.0000    -0.6828     1.9990     1.6813     0.3177
  1 H      0.6695     1.0000     0.3305     0.8903     0.8486     0.0417
  2 H      0.6512     1.0000     0.3488     0.8895     0.8481     0.0414
  3 O      8.6526     8.0000    -0.6526     2.0260     1.7076     0.3183
  4 H      0.6504     1.0000     0.3496     0.8782     0.8377     0.0404
  5 H      0.6935     1.0000     0.3065     0.9158     0.8707     0.0451

  Mayer bond orders larger than 0.100000
B(  0-O ,  1-H ) :   0.8497 B(  0-O ,  2-H ) :   0.8079 B(  3-O ,  4-H ) :   0.8352 
B(  3-O ,  5-H ) :   0.8402 


                *******************************************
                * RELAXED MP2 DENSITY POPULATION ANALYSIS *
                *******************************************

------------------------------------------------------------------------------
                           ORCA POPULATION ANALYSIS
------------------------------------------------------------------------------
Input electron density              ... hydrogen-bond.pmp2re
BaseName (.gbw .S,...)              ... hydrogen-bond

                    ********************************
                    * MULLIKEN POPULATION ANALYSIS *
                    ********************************

-----------------------
MULLIKEN ATOMIC CHARGES
-----------------------
   0 O :   -0.648792
   1 H :    0.317541
   2 H :    0.325023
   3 O :   -0.619764
   4 H :    0.335349
   5 H :    0.290643
Sum of atomic charges:    0.0000000

--------------------------------
MULLIKEN REDUCED ORBITAL CHARGES
--------------------------------
  0 O s       :     3.790171  s :     3.790171
      pz      :     1.643355  p :     4.818663
      px      :     1.722688
      py      :     1.452620
      dz2     :     0.007486  d :     0.039959
      dxz     :     0.010050
      dyz     :     0.004704
      dx2y2   :     0.012036
      dxy     :     0.005682
  1 H s       :     0.639171  s :     0.639171
      pz      :     0.017671  p :     0.043287
      px      :     0.016810
      py      :     0.008806
  2 H s       :     0.630385  s :     0.630385
      pz      :     0.011163  p :     0.044592
      px      :     0.010807
      py      :     0.022622
  3 O s       :     3.795734  s :     3.795734
      pz      :     1.880340  p :     4.783801
      px      :     1.456034
      py      :     1.447428
      dz2     :     0.006959  d :     0.040229
      dxz     :     0.005994
      dyz     :     0.006376
      dx2y2   :     0.015400
      dxy     :     0.005500
  4 H s       :     0.621478  s :     0.621478
      pz      :     0.013153  p :     0.043173
      px      :     0.008009
      py      :     0.022012
  5 H s       :     0.664516  s :     0.664516
      pz      :     0.013163  p :     0.044841
      px      :     0.021020
      py      :     0.010658


                     *******************************
                     * LOEWDIN POPULATION ANALYSIS *
                     *******************************

----------------------
LOEWDIN ATOMIC CHARGES
----------------------
   0 O :   -0.307449
   1 H :    0.157399
   2 H :    0.137224
   3 O :   -0.293667
   4 H :    0.166261
   5 H :    0.140232

-------------------------------
LOEWDIN REDUCED ORBITAL CHARGES
-------------------------------
  0 O s       :     3.478540  s :     3.478540
      pz      :     1.636083  p :     4.779700
      px      :     1.702924
      py      :     1.440692
      dz2     :     0.008695  d :     0.049210
      dxz     :     0.013875
      dyz     :     0.005057
      dx2y2   :     0.016536
      dxy     :     0.005047
  1 H s       :     0.713253  s :     0.713253
      pz      :     0.053610  p :     0.129348
      px      :     0.051285
      py      :     0.024454
  2 H s       :     0.721752  s :     0.721752
      pz      :     0.032223  p :     0.141024
      px      :     0.031210
      py      :     0.077590
  3 O s       :     3.485712  s :     3.485712
      pz      :     1.846404  p :     4.757894
      px      :     1.471280
      py      :     1.440211
      dz2     :     0.008479  d :     0.050061
      dxz     :     0.005711
      dyz     :     0.007558
      dx2y2   :     0.022519
      dxy     :     0.005794
  4 H s       :     0.704705  s :     0.704705
      pz      :     0.038190  p :     0.129034
      px      :     0.022734
      py      :     0.068110
  5 H s       :     0.723224  s :     0.723224
      pz      :     0.037114  p :     0.136544
      px      :     0.070249
      py      :     0.029181


                      *****************************
                      * MAYER POPULATION ANALYSIS *
                      *****************************

  NA   - Mulliken gross atomic population
  ZA   - Total nuclear charge
  QA   - Mulliken gross atomic charge
  VA   - Mayer's total valence
  BVA  - Mayer's bonded valence
  FA   - Mayer's free valence

  ATOM       NA         ZA         QA         VA         BVA        FA
  0 O      8.6488     8.0000    -0.6488     2.0253     1.7100     0.3153
  1 H      0.6825     1.0000     0.3175     0.8986     0.8569     0.0417
  2 H      0.6750     1.0000     0.3250     0.9150     0.8741     0.0409
  3 O      8.6198     8.0000    -0.6198     2.0513     1.7356     0.3157
  4 H      0.6647     1.0000     0.3353     0.8884     0.8481     0.0404
  5 H      0.7094     1.0000     0.2906     0.9281     0.8836     0.0445

  Mayer bond orders larger than 0.100000
B(  0-O ,  1-H ) :   0.8580 B(  0-O ,  2-H ) :   0.8182 B(  3-O ,  4-H ) :   0.8440 
B(  3-O ,  5-H ) :   0.8436 


----------------------------------
MP2 DERIVATIVE INTEGRAL GENERATION
----------------------------------

Input SCF Electron Density              ... hydrogen-bond.scfp
Input Correlated Electron Density       ... hydrogen-bond.pmp2re
Input Energy Weighted Density           ... hydrogen-bond.wmp2.tmp
Input Wavefunction Amplitudes           ... hydrogen-bond.mp2tsaa.tmp

Nuclear repulsion gradient              ... done (  0.0 sec)
HCore & Overlap gradient  (SHARK)       ... done (  0.0 sec)
Analytic two-electron gradient terms    ... 
  Batch handling in the gradient evaluation:
  General contraction                   ... not used
  Memory available                      ... 4093.9 MB
  Memory per occupied orbital in Q2     ...    0.1 MB
  Memory per occupied orbital in Q3     ...    0.0 MB
  Total memory requirement per |i>      ...    0.1 MB
  Number of orbitals treated per batch  ...      8
  Number of batches to be done          ...      1
done (  0.1 sec)

---------------------------------------
MP2 TOTAL ENERGY:     -152.419198172 Eh
---------------------------------------

The final MP2 gradient
  0:  -0.00630489   0.01650623  -0.00785108
  1:   0.00857435  -0.00307546   0.00757323
  2:   0.00151711   0.01188865  -0.00767009
  3:  -0.01883053   0.00941960   0.00250315
  4:   0.00713847  -0.01133050  -0.00404329
  5:   0.00790549  -0.02340853   0.00948807

-----------------------------------
NORM OF THE MP2 GRADIENT:  0.045414
-----------------------------------

Maximum memory used throughout the entire MP2-calculation: 14.8 MB

-------------------------   --------------------
FINAL SINGLE POINT ENERGY      -152.419198171877
-------------------------   --------------------

------------------------------------------------------------------------------
                         ORCA GEOMETRY RELAXATION STEP
------------------------------------------------------------------------------

Reading the OPT-File                    .... done
Getting information on internals        .... done
Copying old internal coords+grads       .... done
Making the new internal coordinates     .... (2022 redundants) done
Validating the new internal coordinates .... (2022 redundants) done
Calculating the B-matrix                .... done
Calculating the G,G- and P matrices     .... done
Transforming gradient to internals      .... done
Projecting the internal gradient        .... done
Number of atoms                         ....   6
Number of internal coordinates          ....  22
Current Energy                          ....  -152.419198172 Eh
Current gradient norm                   ....     0.045413645 Eh/bohr
Maximum allowed component of the step   ....  0.300
Current trust radius                    ....  0.300
Evaluating the initial hessian          ....  (Almloef) done
Projecting the Hessian                  .... done
Forming the augmented Hessian           .... done
Diagonalizing the augmented Hessian     .... done
Last element of RFO vector              ....  0.878203462
Lowest eigenvalues of augmented Hessian:
 -0.010276733  0.020002049  0.029639864  0.071497582  0.150723930
Length of the computed step             ....  0.544620074
Warning: the length of the step is outside the trust region - taking restricted step instead
The input lambda is                     ....     0.018501
   iter:   5  x=    0.009550  g= 1418.455883 f(x)=     5.043112
   iter:  10  x=   -0.032388  g=    6.400432 f(x)=     0.054947
   iter:  15  x=   -0.036080  g=    3.084989 f(x)=     0.000000
The output lambda is                    ....    -0.036080 (15 iterations)
The final length of the internal step   ....  0.300000000
Converting the step to Cartesian space:
 Initial RMS(Int)=    0.0639602149
Transforming coordinates:
 Iter   0:  RMS(Cart)=    0.0500246994 RMS(Int)=    0.0640488418
done
Storing new coordinates                 .... done

                                .--------------------.
          ----------------------|Geometry convergence|-------------------------
          Item                value                   Tolerance       Converged
          ---------------------------------------------------------------------
          RMS gradient        0.0058867875            0.0001000000      NO
          MAX gradient        0.0117613235            0.0003000000      NO
          RMS step            0.0639602149            0.0020000000      NO
          MAX step            0.1723444360            0.0040000000      NO
          -------------------------------------------------------------------------
          ........................................................
          Max(Bonds)      0.0912      Max(Angles)    1.58
          Max(Dihed)        2.55      Max(Improp)    0.00
          ---------------------------------------------------------------------

The optimization has not yet converged - more geometry cycles are needed


    ---------------------------------------------------------------------------
                         Redundant Internal Coordinates
                            (Angstroem and degrees)

        Definition                    Value    dE/dq     Step     New-Value
    ----------------------------------------------------------------------------
     1. B(H   1,O   0)                0.9500 -0.010578  0.0097    0.9597   
     2. B(H   2,O   0)                0.9500 -0.002458  0.0050    0.9550   
     3. B(O   3,H   2)                1.8981 -0.008021  0.0784    1.9765   
     4. B(H   4,O   3)                0.9500 -0.011761  0.0108    0.9608   
     5. B(H   5,O   0)                2.2353 -0.011096  0.0912    2.3265   
     6. B(H   5,H   2)                1.3598 -0.009256  0.0898    1.4495   
     7. B(H   5,O   3)                0.9500 -0.005428  0.0079    0.9579   
     8. A(H   1,O   0,H   2)          109.47  0.009559   -1.51    107.96   
     9. A(O   0,H   2,H   5)          150.34  0.000550   -0.27    150.07   
    10. A(O   3,H   2,H   5)           28.20 -0.001059   -0.91     27.29   
    11. A(O   0,H   2,O   3)          139.57 -0.000105    1.32    140.89   
    12. A(H   2,O   3,H   4)          138.98  0.005164   -0.64    138.34   
    13. A(H   2,O   3,H   5)           42.56 -0.002346    1.48     44.05   
    14. A(H   4,O   3,H   5)          109.47  0.006314   -1.58    107.89   
    15. A(H   2,H   5,O   3)          109.24  0.003405   -0.58    108.66   
    16. D(H   5,H   2,O   0,H   1)    -63.47 -0.000914   -0.08    -63.55   
    17. D(O   3,H   2,O   0,H   1)   -110.24  0.001387    0.02   -110.21   
    18. D(H   4,O   3,H   2,O   0)   -169.77  0.002328   -2.20   -171.97   
    19. D(H   5,O   3,H   2,O   0)    130.29  0.001362   -2.45    127.84   
    20. D(H   4,O   3,H   2,H   5)     59.94  0.000966    0.25     60.19   
    21. D(H   2,H   5,O   3,H   4)   -142.95 -0.002374    0.24   -142.71   
    22. D(O   3,H   5,H   2,O   0)    -88.86  0.003238   -2.55    -91.40   
    ----------------------------------------------------------------------------

Geometry step timings:
Preparation and reading OPT file:      0.000 s ( 3.073 %)
Internal coordinates            :      0.000 s ( 3.352 %)
B/P matrices and projection     :      0.000 s (20.670 %)
Hessian update/contruction      :      0.000 s (10.894 %)
Making the step                 :      0.000 s (28.492 %)
Converting the step to Cartesian:      0.000 s ( 5.866 %)
Storing new data                :      0.000 s ( 2.514 %)
Checking convergence            :      0.000 s ( 4.469 %)
Final printing                  :      0.000 s (20.670 %)
Total time                      :      0.000 s

Time for energy+gradient        :      0.699 s
Time for complete geometry iter :      0.708 s

         *************************************************************
         *                GEOMETRY OPTIMIZATION CYCLE   2            *
         *************************************************************
---------------------------------
CARTESIAN COORDINATES (ANGSTROEM)
---------------------------------
  O     -1.435657    1.614878   -0.000353
  H     -2.091830    1.463184   -0.684095
  H     -1.435745    2.547221    0.206139
  O     -0.312259    4.161314    0.008793
  H     -0.307453    5.073755    0.309780
  H     -1.217282    3.923032   -0.194734

----------------------------
CARTESIAN COORDINATES (A.U.)
----------------------------
  NO LB      ZA    FRAG     MASS         X           Y           Z
   0 O     8.0000    0    15.999   -2.712998    3.051676   -0.000667
   1 H     1.0000    0     1.008   -3.952985    2.765018   -1.292752
   2 H     1.0000    0     1.008   -2.713165    4.813550    0.389546
   3 O     8.0000    0    15.999   -0.590085    7.863744    0.016617
   4 H     1.0000    0     1.008   -0.581002    9.588008    0.585400
   5 H     1.0000    0     1.008   -2.300330    7.413457   -0.367994

--------------------------------
INTERNAL COORDINATES (ANGSTROEM)
--------------------------------
 O      0   0   0     0.000000000000     0.00000000     0.00000000
 H      1   0   0     0.959727143682     0.00000000     0.00000000
 H      1   2   0     0.954935982518   107.95741988     0.00000000
 O      3   1   2     1.976477171956   140.86739525   249.78746007
 H      4   3   1     0.960814904965   138.33987819   188.02021498
 H      4   3   1     0.957740785755    44.01972920   127.83678455

---------------------------
INTERNAL COORDINATES (A.U.)
---------------------------
 O      0   0   0     0.000000000000     0.00000000     0.00000000
 H      1   0   0     1.813621464850     0.00000000     0.00000000
 H      1   2   0     1.804567482387   107.95741988     0.00000000
 O      3   1   2     3.735000564944   140.86739525   249.78746007
 H      4   3   1     1.815677035774   138.33987819   188.02021498
 H      4   3   1     1.809867792364    44.01972920   127.83678455

------------------------------------------------------------------------------
                   ___                                                        
                  /   \      - P O W E R E D   B Y -                         
                 /     \                                                     
                 |  |  |   _    _      __       _____    __    __             
                 |  |  |  | |  | |    /  \     |  _  \  |  |  /  |          
                  \  \/   | |  | |   /    \    | | | |  |  | /  /          
                 / \  \   | |__| |  /  /\  \   | |_| |  |  |/  /          
                |  |  |   |  __  | /  /__\  \  |    /   |      \           
                |  |  |   | |  | | |   __   |  |    \   |  |\   \          
                \     /   | |  | | |  |  |  |  | |\  \  |  | \   \       
                 \___/    |_|  |_| |__|  |__|  |_| \__\ |__|  \__/        
                                                                              
                      - O R C A' S   B I G   F R I E N D -                    
                                      &                                       
                       - I N T E G R A L  F E E D E R -                       
                                                                              
 v1 FN, 2020, v2 2021, v3 2022-2024                                           
------------------------------------------------------------------------------


----------------------
SHARK INTEGRAL PACKAGE
----------------------

Number of atoms                             ...      6
Number of basis functions                   ...     48
Number of shells                            ...     24
Maximum angular momentum                    ...      2
Integral batch strategy                     ... SHARK/LIBINT Hybrid
RI-J (if used) integral strategy            ... SPLIT-RIJ (Revised 2003 algorithm where possible)
Printlevel                                  ...      1
Contraction scheme used                     ... SEGMENTED contraction
Prescreening option                         ... SCHWARTZ
   Thresh                                   ... 2.500e-11
   Tcut                                     ... 2.500e-12
   Tpresel                                  ... 2.500e-12 
Coulomb Range Separation                    ... NOT USED
Exchange Range Separation                   ... NOT USED
Multipole approximations                    ... NOT USED
Finite Nucleus Model                        ... NOT USED
CABS basis                                  ... NOT available
Auxiliary Coulomb fitting basis             ... NOT available
Auxiliary J/K fitting basis                 ... NOT available
Auxiliary Correlation fitting basis         ... NOT available
Auxiliary 'external' fitting basis          ... NOT available

Checking pre-screening integrals            ... done (  0.0 sec) Dimension = 24
   => SHARK Basis and OBASIS are compatible. Storing Pre-screening
Shell pair information
Shell pair cut-off parameter TPreSel        ...   2.5e-12
Total number of shell pairs                 ...       300
Shell pairs after pre-screening             ...       295
Total number of primitive shell pairs       ...      1329
Primitive shell pairs kept                  ...      1064
          la=0 lb=0:    103 shell pairs
          la=1 lb=0:    110 shell pairs
          la=1 lb=1:     35 shell pairs
          la=2 lb=0:     28 shell pairs
          la=2 lb=1:     16 shell pairs
          la=2 lb=2:      3 shell pairs

Checking whether 4 symmetric matrices of dimension 48 fit in memory
:Max Core in MB      =   4096.00
 MB in use           =      1.60
 MB left             =   4094.40
 MB needed           =      0.04
 Data fit in memory  = YES
Calculating Nuclear repulsion               ... done (  0.0 sec) ENN=     37.806193817016 Eh

Diagonalization of the overlap matrix:
Smallest eigenvalue                        ... 2.632e-02
Time for diagonalization                   ...    0.000 sec
Threshold for overlap eigenvalues          ... 1.000e-07
Number of eigenvalues below threshold      ... 0
Time for construction of square roots      ...    0.000 sec
Total time needed                          ...    0.000 sec

-------------------
DFT GRID GENERATION
-------------------

General Integration Accuracy     IntAcc      ... 4.388
Radial Grid Type                 RadialGrid  ... OptM3 with GC (2021)
Angular Grid (max. ang.)         AngularGrid ... 4 (Lebedev-302)
Angular grid pruning method      GridPruning ... 4 (adaptive)
Weight generation scheme         WeightScheme... mBecke (2022)
Basis function cutoff            BFCut       ... 1.0000e-11
Integration weight cutoff        WCut        ... 1.0000e-14
Partially contracted basis set               ... off
Rotationally invariant grid construction     ... off
Angular grids for H and He will be reduced by one unit

Total number of grid points                  ...    25401
Total number of batches                      ...      400
Average number of points per batch           ...       63
Average number of grid points per atom       ...     4234
Grids setup in   0.1 sec
Initializing property integral containers    ... done (  0.0 sec)

SHARK setup successfully completed in   0.1 seconds

Maximum memory used throughout the entire STARTUP-calculation: 9.5 MB
Occupation numbers will be reassigned to an Aufbau configuration
             **** ENERGY FILE WAS UPDATED (hydrogen-bond.en.tmp) ****
Finished Guess after   0.0 sec
Maximum memory used throughout the entire GUESS-calculation: 4.0 MB
----------------------------------------D-I-I-S--------------------------------------------
Iteration    Energy (Eh)           Delta-E    RMSDP     MaxDP     DIISErr   Damp  Time(sec)
-------------------------------------------------------------------------------------------
               ***  Starting incremental Fock matrix formation  ***
    1    -152.0303315466310323     0.00e+00  2.62e-04  2.42e-03  9.48e-03  0.700   0.0
    2    -152.0304826038401416    -1.51e-04  2.33e-04  2.11e-03  7.65e-03  0.700   0.0
                               ***Turning on AO-DIIS***
    3    -152.0306045009983791    -1.22e-04  2.21e-04  2.02e-03  6.03e-03  0.700   0.0
    4    -152.0306994118337229    -9.49e-05  5.96e-04  5.29e-03  4.48e-03  0.000   0.0
                              *** Initializing SOSCF ***
---------------------------------------S-O-S-C-F--------------------------------------
Iteration    Energy (Eh)           Delta-E    RMSDP     MaxDP     MaxGrad    Time(sec)
--------------------------------------------------------------------------------------
    5    -152.0309760715581433    -2.77e-04  7.01e-05  6.03e-04  5.36e-04     0.0
               *** Restarting incremental Fock matrix formation ***
    6    -152.0309788922479015    -2.82e-06  4.13e-05  4.76e-04  1.62e-04     0.0
    7    -152.0309795703770419    -6.78e-07  3.56e-05  4.48e-04  7.93e-05     0.0
    8    -152.0309797615885827    -1.91e-07  3.57e-06  3.47e-05  1.92e-05     0.0
    9    -152.0309797652309385    -3.64e-09  1.21e-06  1.27e-05  8.95e-06     0.0
                 **** Energy Check signals convergence ****

               *****************************************************
               *                     SUCCESS                       *
               *           SCF CONVERGED AFTER   9 CYCLES          *
               *****************************************************

             **** ENERGY FILE WAS UPDATED (hydrogen-bond.en.tmp) ****

----------------
TOTAL SCF ENERGY
----------------

Total Energy       :       -152.03097976618221 Eh           -4136.97328 eV

Components:
Nuclear Repulsion  :         37.80619381701602 Eh            1028.75883 eV
Electronic Energy  :       -189.83717358319822 Eh           -5165.73211 eV
One Electron Energy:       -284.82603777913050 Eh           -7750.51052 eV
Two Electron Energy:         94.98886419593228 Eh            2584.77840 eV

Virial components:
Potential Energy   :       -303.87628984817366 Eh           -8268.89423 eV
Kinetic Energy     :        151.84531008199144 Eh            4131.92095 eV
Virial Ratio       :          2.00122275547457

---------------
SCF CONVERGENCE
---------------

  Last Energy change         ...    3.6424e-09  Tolerance :   1.0000e-08
  Last MAX-Density change    ...    1.2701e-05  Tolerance :   1.0000e-07
  Last RMS-Density change    ...    1.2083e-06  Tolerance :   5.0000e-09
  Last DIIS Error            ...    5.3554e-04  Tolerance :   5.0000e-07
  Last Orbital Gradient      ...    8.9509e-06  Tolerance :   1.0000e-05
  Last Orbital Rotation      ...    4.3447e-06  Tolerance :   1.0000e-05


Total SCF time: 0 days 0 hours 0 min 0 sec 
Finished LeanSCF after   0.2 sec

Maximum memory used throughout the entire LEANSCF-calculation: 7.6 MB

------------------------------------------------------------------------------
                                ORCA  MP2 
------------------------------------------------------------------------------

Freezing NCore=4 chemical core electrons
MP2 will be done in the AO integral direct mode
The Q1-step will be done using symmetric double matrices
Dimension of the basis                    ...   48
Memory devoted for MP2                    ... 4096 MB   
Memory needed for all in one shot         ...    4 MB
Number of MOs that can be treated together... 9509      
MP2 density construction                  ... relaxed
The MP2 gradient is requested => amplitudes will be stored on disk
Total number of MOs              ...    8
Number of MOs treated per batch  ...    8 
Number of batches necessary      ...    1 
OPERATORS   0/  0 PASS   0
-----------------------------------------------
 MP2 CORRELATION ENERGY   :     -0.393221871 Eh
-----------------------------------------------


---------------------
MP2 DENSITY FORMATION
---------------------

Completing the external part of the density      ... done
Storing the unrelaxed density                    ... done

Calculating G(D)                                 ... done
Completing the Lagrangian                        ... done
Solving the Z-vector equations                   ... 
-------------------
SHARK CP-SCF DRIVER
-------------------

Dimension of the orbital basis          ...     48
Dimension of the CPSCF-problem          ...    380
Number of operators                     ...      1
Max. number of iterations               ...    128
Convergence Tolerance                   ... 1.0e-04
Number of perturbations                 ...      1
Perturbation type                       ... REAL

----------------------------
POPLE LINEAR EQUATION SOLVER
----------------------------

  ITERATION   0:   ||err||_max =   3.2064e-02 (   0.0 sec)
  ITERATION   1:   ||err||_max =   7.9721e-03 (   0.0 sec)
  ITERATION   2:   ||err||_max =   1.3229e-03 (   0.0 sec)
  ITERATION   3:   ||err||_max =   2.9587e-04 (   0.0 sec)
  ITERATION   4:   ||err||_max =   8.6256e-05 (   0.0 sec)
                                                 ... done
Finalizing the relaxed density                   ... done
Transforming P to the AO basis                   ... done
Storing the relaxed density                      ... done

------------------------------------
ENERGY WEIGHTED DENSITY FINALIZATION
------------------------------------

Gathering the parts of the W-matrix              ...                                                      done
Forming the Z-density                            ... done
Transforming Z to the AO basis                   ... done
Calculating G(Z)                                 ... done
Finalizing the W-matrix                          ...                                                      done
Transforming W to the AO basis and storing       ... done

----------------------------------
MP2 DERIVATIVE INTEGRAL GENERATION
----------------------------------

Input SCF Electron Density              ... hydrogen-bond.scfp
Input Correlated Electron Density       ... hydrogen-bond.pmp2re
Input Energy Weighted Density           ... hydrogen-bond.wmp2.tmp
Input Wavefunction Amplitudes           ... hydrogen-bond.mp2tsaa.tmp

Nuclear repulsion gradient              ... done (  0.0 sec)
HCore & Overlap gradient  (SHARK)       ... done (  0.0 sec)
Analytic two-electron gradient terms    ... 
  Batch handling in the gradient evaluation:
  General contraction                   ... not used
  Memory available                      ... 4093.8 MB
  Memory per occupied orbital in Q2     ...    0.1 MB
  Memory per occupied orbital in Q3     ...    0.0 MB
  Total memory requirement per |i>      ...    0.1 MB
  Number of orbitals treated per batch  ...      8
  Number of batches to be done          ...      1
done (  0.1 sec)

---------------------------------------
MP2 TOTAL ENERGY:     -152.424201637 Eh
---------------------------------------

The final MP2 gradient
  0:   0.00083797   0.01072989  -0.00039540
  1:   0.00135273  -0.00353581   0.00027273
  2:  -0.00017869   0.01087491  -0.00630900
  3:  -0.00876859   0.00166585  -0.00027170
  4:   0.00581203  -0.00032788  -0.00044359
  5:   0.00094454  -0.01940696   0.00714696

-----------------------------------
NORM OF THE MP2 GRADIENT:  0.028826
-----------------------------------

Maximum memory used throughout the entire MP2-calculation: 14.8 MB

-------------------------   --------------------
FINAL SINGLE POINT ENERGY      -152.424201637351
-------------------------   --------------------

------------------------------------------------------------------------------
                         ORCA GEOMETRY RELAXATION STEP
------------------------------------------------------------------------------

Reading the OPT-File                    .... done
Getting information on internals        .... done
Copying old internal coords+grads       .... done
Making the new internal coordinates     .... (2022 redundants) done
Validating the new internal coordinates .... (2022 redundants) done
Calculating the B-matrix                .... done
Calculating the G,G- and P matrices     .... done
Transforming gradient to internals      .... done
Projecting the internal gradient        .... done
Number of atoms                         ....   6
Number of internal coordinates          ....  22
Current Energy                          ....  -152.424201637 Eh
Current gradient norm                   ....     0.028825628 Eh/bohr
Maximum allowed component of the step   ....  0.300
Current trust radius                    ....  0.300
Updating the Hessian (BFGS)             .... done
Forming the augmented Hessian           .... done
Diagonalizing the augmented Hessian     .... done
Last element of RFO vector              ....  0.879340753
Lowest eigenvalues of augmented Hessian:
 -0.007402409  0.019862479  0.023974519  0.072091285  0.141404482
Length of the computed step             ....  0.541534175
Warning: the length of the step is outside the trust region - taking restricted step instead
The input lambda is                     ....     0.015251
   iter:   5  x=    0.008615  g= 2329.603478 f(x)=     5.927433
   iter:  10  x=   -0.023206  g=    9.652213 f(x)=     0.069022
   iter:  15  x=   -0.026957  g=    4.070231 f(x)=     0.000000
The output lambda is                    ....    -0.026957 (15 iterations)
The final length of the internal step   ....  0.300000000
Converting the step to Cartesian space:
 Initial RMS(Int)=    0.0639602149
Transforming coordinates:
 Iter   0:  RMS(Cart)=    0.0456025001 RMS(Int)=    0.0640264923
done
Storing new coordinates                 .... done
The predicted energy change is          ....    -0.003328533
Previously predicted energy change      ....    -0.004660230
Actually observed energy change         ....    -0.005003465
Ratio of predicted to observed change   ....     1.073652117
New trust radius                        ....     0.450000000

                                .--------------------.
[...]
          la=0 lb=0:    102 shell pairs
          la=1 lb=0:    109 shell pairs
          la=1 lb=1:     36 shell pairs
          la=2 lb=0:     28 shell pairs
          la=2 lb=1:     16 shell pairs
          la=2 lb=2:      3 shell pairs

Checking whether 4 symmetric matrices of dimension 48 fit in memory
:Max Core in MB      =   4096.00
 MB in use           =      1.59
 MB left             =   4094.41
 MB needed           =      0.04
 Data fit in memory  = YES
Calculating Nuclear repulsion               ... done (  0.0 sec) ENN=     36.724963413083 Eh

Diagonalization of the overlap matrix:
Smallest eigenvalue                        ... 3.111e-02
Time for diagonalization                   ...    0.000 sec
Threshold for overlap eigenvalues          ... 1.000e-07
Number of eigenvalues below threshold      ... 0
Time for construction of square roots      ...    0.000 sec
Total time needed                          ...    0.000 sec

-------------------
DFT GRID GENERATION
-------------------

General Integration Accuracy     IntAcc      ... 4.388
Radial Grid Type                 RadialGrid  ... OptM3 with GC (2021)
Angular Grid (max. ang.)         AngularGrid ... 4 (Lebedev-302)
Angular grid pruning method      GridPruning ... 4 (adaptive)
Weight generation scheme         WeightScheme... mBecke (2022)
Basis function cutoff            BFCut       ... 1.0000e-11
Integration weight cutoff        WCut        ... 1.0000e-14
Partially contracted basis set               ... off
Rotationally invariant grid construction     ... off
Angular grids for H and He will be reduced by one unit

Total number of grid points                  ...    25443
Total number of batches                      ...      400
Average number of points per batch           ...       63
Average number of grid points per atom       ...     4240
Grids setup in   0.1 sec
Initializing property integral containers    ... done (  0.0 sec)

SHARK setup successfully completed in   0.1 seconds

Maximum memory used throughout the entire STARTUP-calculation: 9.5 MB
Occupation numbers will be reassigned to an Aufbau configuration
             **** ENERGY FILE WAS UPDATED (hydrogen-bond.en.tmp) ****
Finished Guess after   0.0 sec
Maximum memory used throughout the entire GUESS-calculation: 4.0 MB
----------------------------------------D-I-I-S--------------------------------------------
Iteration    Energy (Eh)           Delta-E    RMSDP     MaxDP     DIISErr   Damp  Time(sec)
-------------------------------------------------------------------------------------------
               ***  Starting incremental Fock matrix formation  ***
                              *** Initializing SOSCF ***
---------------------------------------S-O-S-C-F--------------------------------------
Iteration    Energy (Eh)           Delta-E    RMSDP     MaxDP     MaxGrad    Time(sec)
--------------------------------------------------------------------------------------
    1    -152.0531663466938994     0.00e+00  2.42e-04  2.65e-03  2.45e-04     0.0
               *** Restarting incremental Fock matrix formation ***
    2    -152.0532076096443745    -4.13e-05  1.04e-04  9.72e-04  7.05e-04     0.0
    3    -152.0532146363030961    -7.03e-06  6.74e-05  6.08e-04  3.07e-04     0.0
    4    -152.0532159320553944    -1.30e-06  9.13e-06  9.38e-05  4.33e-05     0.0
    5    -152.0532159651937718    -3.31e-08  4.92e-06  4.70e-05  1.79e-05     0.0
    6    -152.0532159704128787    -5.22e-09  7.95e-07  9.45e-06  5.52e-06     0.0
                 **** Energy Check signals convergence ****

               *****************************************************
               *                     SUCCESS                       *
               *           SCF CONVERGED AFTER   6 CYCLES          *
               *****************************************************

             **** ENERGY FILE WAS UPDATED (hydrogen-bond.en.tmp) ****

----------------
TOTAL SCF ENERGY
----------------

Total Energy       :       -152.05321597068831 Eh           -4137.57836 eV

Components:
Nuclear Repulsion  :         36.72496341308280 Eh             999.33706 eV
Electronic Energy  :       -188.77817938377112 Eh           -5136.91542 eV
One Electron Energy:       -282.86371353990006 Eh           -7697.11296 eV
Two Electron Energy:         94.08553415612894 Eh            2560.19754 eV

Virial components:
Potential Energy   :       -303.83118422428402 Eh           -8267.66684 eV
Kinetic Energy     :        151.77796825359567 Eh            4130.08849 eV
Virial Ratio       :          2.00181348927160

---------------
SCF CONVERGENCE
---------------

  Last Energy change         ...    5.2191e-09  Tolerance :   1.0000e-08
  Last MAX-Density change    ...    9.4503e-06  Tolerance :   1.0000e-07
  Last RMS-Density change    ...    7.9479e-07  Tolerance :   5.0000e-09
  Last DIIS Error            ...    3.1156e-03  Tolerance :   5.0000e-07
  Last Orbital Gradient      ...    5.5208e-06  Tolerance :   1.0000e-05
  Last Orbital Rotation      ...    3.4607e-06  Tolerance :   1.0000e-05


Total SCF time: 0 days 0 hours 0 min 0 sec 
Finished LeanSCF after   0.1 sec

Maximum memory used throughout the entire LEANSCF-calculation: 9.5 MB

------------------------------------------------------------------------------
                                ORCA  MP2 
------------------------------------------------------------------------------

Freezing NCore=4 chemical core electrons
MP2 will be done in the AO integral direct mode
The Q1-step will be done using symmetric double matrices
Dimension of the basis                    ...   48
Memory devoted for MP2                    ... 4096 MB   
Memory needed for all in one shot         ...    4 MB
Number of MOs that can be treated together... 9509      
MP2 density construction                  ... relaxed
The MP2 gradient is requested => amplitudes will be stored on disk
Total number of MOs              ...    8
Number of MOs treated per batch  ...    8 
Number of batches necessary      ...    1 
OPERATORS   0/  0 PASS   0
-----------------------------------------------
 MP2 CORRELATION ENERGY   :     -0.392544697 Eh
-----------------------------------------------


---------------------
MP2 DENSITY FORMATION
---------------------

Completing the external part of the density      ... done
Storing the unrelaxed density                    ... done

Calculating G(D)                                 ... done
Completing the Lagrangian                        ... done
Solving the Z-vector equations                   ... 
-------------------
SHARK CP-SCF DRIVER
-------------------

Dimension of the orbital basis          ...     48
Dimension of the CPSCF-problem          ...    380
Number of operators                     ...      1
Max. number of iterations               ...    128
Convergence Tolerance                   ... 1.0e-04
Number of perturbations                 ...      1
Perturbation type                       ... REAL

----------------------------
POPLE LINEAR EQUATION SOLVER
----------------------------

  ITERATION   0:   ||err||_max =   3.0820e-02 (   0.0 sec)
  ITERATION   1:   ||err||_max =   7.6155e-03 (   0.0 sec)
  ITERATION   2:   ||err||_max =   1.1359e-03 (   0.0 sec)
  ITERATION   3:   ||err||_max =   3.5305e-04 (   0.0 sec)
  ITERATION   4:   ||err||_max =   8.6446e-05 (   0.0 sec)
                                                 ... done
Finalizing the relaxed density                   ... done
Transforming P to the AO basis                   ... done
Storing the relaxed density                      ... done

------------------------------------
ENERGY WEIGHTED DENSITY FINALIZATION
------------------------------------

Gathering the parts of the W-matrix              ...                                                      done
Forming the Z-density                            ... done
Transforming Z to the AO basis                   ... done
Calculating G(Z)                                 ... done
Finalizing the W-matrix                          ...                                                      done
Transforming W to the AO basis and storing       ... done

----------------------------------
MP2 DERIVATIVE INTEGRAL GENERATION
----------------------------------

Input SCF Electron Density              ... hydrogen-bond.scfp
Input Correlated Electron Density       ... hydrogen-bond.pmp2re
Input Energy Weighted Density           ... hydrogen-bond.wmp2.tmp
Input Wavefunction Amplitudes           ... hydrogen-bond.mp2tsaa.tmp

Nuclear repulsion gradient              ... done (  0.0 sec)
HCore & Overlap gradient  (SHARK)       ... done (  0.0 sec)
Analytic two-electron gradient terms    ... 
  Batch handling in the gradient evaluation:
  General contraction                   ... not used
  Memory available                      ... 4091.9 MB
  Memory per occupied orbital in Q2     ...    0.1 MB
  Memory per occupied orbital in Q3     ...    0.0 MB
  Total memory requirement per |i>      ...    0.1 MB
  Number of orbitals treated per batch  ...      8
  Number of batches to be done          ...      1
done (  0.1 sec)

---------------------------------------
MP2 TOTAL ENERGY:     -152.445760667 Eh
---------------------------------------

The final MP2 gradient
  0:   0.00010280  -0.00012345   0.00017995
  1:  -0.00008913   0.00001754  -0.00003784
  2:  -0.00008771   0.00017011  -0.00021344
  3:   0.00000074   0.00036226  -0.00013133
  4:  -0.00019860  -0.00023641   0.00027347
  5:   0.00027191  -0.00019006  -0.00007081

-----------------------------------
NORM OF THE MP2 GRADIENT:  0.000764
-----------------------------------

Maximum memory used throughout the entire MP2-calculation: 16.8 MB

-------------------------   --------------------
FINAL SINGLE POINT ENERGY      -152.445760667265
-------------------------   --------------------

------------------------------------------------------------------------------
                         ORCA GEOMETRY RELAXATION STEP
------------------------------------------------------------------------------

Reading the OPT-File                    .... done
Getting information on internals        .... done
Copying old internal coords+grads       .... done
Making the new internal coordinates     .... (2022 redundants) done
Validating the new internal coordinates .... (2022 redundants) done
Calculating the B-matrix                .... done
Calculating the G,G- and P matrices     .... done
Transforming gradient to internals      .... done
Projecting the internal gradient        .... done
Number of atoms                         ....   6
Number of internal coordinates          ....  22
Current Energy                          ....  -152.445760667 Eh
Current gradient norm                   ....     0.000764019 Eh/bohr
Maximum allowed component of the step   ....  0.300
Current trust radius                    ....  0.207
Updating the Hessian (BFGS)             .... done
Forming the augmented Hessian           .... done
Diagonalizing the augmented Hessian     .... done
Last element of RFO vector              ....  0.981950016
Lowest eigenvalues of augmented Hessian:
 -0.000006090  0.000096306  0.000478360  0.001023284  0.001837471
Length of the computed step             ....  0.192617339
The final length of the internal step   ....  0.192617339
Converting the step to Cartesian space:
 Initial RMS(Int)=    0.0410661547
Transforming coordinates:
 Iter   0:  RMS(Cart)=    0.0159127012 RMS(Int)=    0.0369530114
 Iter   5:  RMS(Cart)=    0.0000000506 RMS(Int)=    0.0000001997
done
Storing new coordinates                 .... done
The predicted energy change is          ....    -0.000003158
Previously predicted energy change      ....    -0.000004023
Actually observed energy change         ....    -0.000004069
Ratio of predicted to observed change   ....     1.011287270
New trust radius                        ....     0.311111111

                                .--------------------.
          ----------------------|Geometry convergence|-------------------------
          Item                value                   Tolerance       Converged
          ---------------------------------------------------------------------
          Energy change      -0.0000040686            0.0000050000      YES
          RMS gradient        0.0001143579            0.0001000000      NO
          MAX gradient        0.0002744346            0.0003000000      YES
          RMS step            0.0410661547            0.0020000000      NO
          MAX step            0.0969385462            0.0040000000      NO
          -------------------------------------------------------------------------
          ........................................................
          Max(Bonds)      0.0267      Max(Angles)    3.53
          Max(Dihed)        5.55      Max(Improp)    0.00
          ---------------------------------------------------------------------

The optimization has not yet converged - more geometry cycles are needed


    ---------------------------------------------------------------------------
                         Redundant Internal Coordinates
                            (Angstroem and degrees)

        Definition                    Value    dE/dq     Step     New-Value
    ----------------------------------------------------------------------------
     1. B(H   1,O   0)                0.9606 -0.000044 -0.0000    0.9605   
     2. B(H   2,O   0)                0.9675  0.000012  0.0048    0.9724   
     3. B(O   3,H   2)                1.9655 -0.000010  0.0024    1.9679   
     4. B(H   4,O   3)                0.9637  0.000032  0.0001    0.9638   
     5. B(H   5,O   0)                3.2305  0.000013 -0.0267    3.2038   
     6. B(H   5,H   2)                2.3596 -0.000003 -0.0062    2.3534   
     7. B(H   5,O   3)                0.9636  0.000126 -0.0051    0.9584   
     8. A(H   1,O   0,H   2)          104.21  0.000125    0.10    104.31   
     9. A(O   0,H   2,H   5)          149.45  0.000007   -3.53    145.92   
    10. A(O   3,H   2,H   5)           23.56  0.000035   -0.06     23.50   
    11. A(O   0,H   2,O   3)          165.11  0.000033   -2.78    162.33   
    12. A(H   2,O   3,H   4)           94.78 -0.000220   -0.56     94.23   
    13. A(H   2,O   3,H   5)          101.83 -0.000045   -0.34    101.48   
    14. A(H   4,O   3,H   5)          104.37  0.000274   -0.35    104.02   
    15. A(H   2,H   5,O   3)           54.61  0.000011    0.40     55.01   
    16. D(H   5,H   2,O   0,H   1)    160.98 -0.000018   -1.16    159.82   
    17. D(O   3,H   2,O   0,H   1)   -149.28  0.000115   -5.40   -154.68   
    18. D(H   4,O   3,H   2,O   0)     29.71  0.000140    5.31     35.03   
    19. D(H   5,O   3,H   2,O   0)    -76.07 -0.000084    5.55    -70.51   
    20. D(H   4,O   3,H   2,H   5)    105.78  0.000224   -0.24    105.54   
    21. D(H   2,H   5,O   3,H   4)    -98.14  0.000178    0.72    -97.43   
    22. D(O   3,H   5,H   2,O   0)    150.62  0.000051    1.14    151.76   
    ----------------------------------------------------------------------------

Geometry step timings:
Preparation and reading OPT file:      0.000 s ( 2.419 %)
Internal coordinates            :      0.000 s ( 3.495 %)
B/P matrices and projection     :      0.000 s (23.925 %)
Hessian update/contruction      :      0.000 s (18.280 %)
Making the step                 :      0.000 s (18.548 %)
Converting the step to Cartesian:      0.000 s ( 5.376 %)
Storing new data                :      0.000 s ( 2.151 %)
Checking convergence            :      0.000 s ( 5.645 %)
Final printing                  :      0.000 s (20.161 %)
Total time                      :      0.000 s

Time for energy+gradient        :      0.610 s
Time for complete geometry iter :      0.619 s




    ----------------------------------------------------------------------------
                                   ERROR !!!
       The optimization did not converge but reached the maximum 
       number of optimization cycles.
       As a subsequent Frequencies calculation has been requested
       ORCA will abort at this point of the run.
       Please restart the calculation with the lowest energy geometry and/or
       a larger maxiter for the geometry optimization.
    ----------------------------------------------------------------------------



--------------------------------
SUGGESTED CITATIONS FOR THIS RUN
--------------------------------

Below you find a list of papers that are relevant to this ORCA run
We neither can nor want to force you to cite these papers, but we appreciate if you do
You receive ORCA, which is the product of decades of hard work by many enthusiastic individuals, for free
The only thing we kindly ask in return is that you cite our papers,
We deeply appreciate it, if you show your appreciation for ORCA by not just citing the generic ORCA reference.

Please note that relegating all ORCA citations to the supporting information does *not* help us.
SI sections are not indexed - citations you put there will not count into any citation statistics
But we need these citations in order to attract the funding resources that allow us to do what we are doing

Therefore, if you are a happy ORCA user, please consider citing a few of the papers listed below in the main body of your paper

In addition to the list printed below, the program has created the file hydrogen-bond.bibtex that contains the list in bibtex format
You can import this file easily into all common literature databanks and citation aid programs


List of essential papers. We consider these as the minimum necessary citations

  1. Neese, F.
     Software update: the ORCA program system, version 6.0
     WIRES Comput. Molec. Sci. 2025 15(1), e70019
     doi.org/10.1002/wcms.7019

List of papers to cite with high priority. The work reported in these papers was absolutely
necessary for this run to complete.
Our perspective: the developers of density functionals and basis sets usually get cited in chemistry papers
Good! But without the algorithms to do something with them, the functionals or basis sets would not do anything.
Hence, in our opinion, the algorithm design and method developments papers are equally worthy of getting cited

  1. Neese, F.
     The SHARK Integral Generation and Digestion System
     J. Comp. Chem. 2022 44(3), 381
     doi.org/10.1002/jcc.26942

List of suggested additional citations. These are papers that are important in the 'surrounding' of 
of this run, or papers that preceded the highly important papers. If you like your results we are grateful for a citation.

  1. Neese, F.
     The ORCA program system
     WIRES Comput. Molec. Sci. 2012 2(1), 73-78
     doi.org/10.1002/wcms.81
  2. Neese, F.
     Software update: the ORCA program system, version 4.0
     WIRES Comput. Molec. Sci. 2018 8(1), 1-6
     doi.org/10.1002/wcms.1327
  3. Neese, F.; Wennmohs, F.; Becker, U.; Riplinger, C.
     The ORCA quantum chemistry program package
     J. Chem. Phys. 2020 152(22), 224108
     doi.org/10.1063/5.0004608
  4. Neese, F.
     Software update: The ORCA program system—Version 5.0
     WIRES Comput. Molec. Sci. 2022 12(1), e1606
     doi.org/10.1002/wcms.1606

List of optional additional citations

  1. Neese, F.
     Approximate second-order SCF convergence for spin unrestricted wavefunctions
     Chem. Phys. Lett. 2000 325(1-3), 93-98
     doi.org/10.1016/s0009-2614(00)00662-x

Timings for individual modules:

Sum of individual times          ...       30.264 sec (=   0.504 min)
Startup calculation              ...        4.235 sec (=   0.071 min)  14.0 %
SCF iterations                   ...        9.759 sec (=   0.163 min)  32.2 %
MP2 module                       ...       16.244 sec (=   0.271 min)  53.7 %
Geometry relaxation              ...        0.027 sec (=   0.000 min)   0.1 %
                             ****ORCA TERMINATED NORMALLY****
TOTAL RUN TIME: 0 days 0 hours 0 minutes 31 seconds 109 msec
