
                                 *****************
                                 * O   R   C   A *
                                 *****************

                                            #,                                       
                                            ###                                      
                                            ####                                     
                                            #####                                    
                                            ######                                   
                                           ########,                                 
                                     ,,################,,,,,                         
                               ,,#################################,,                 
                          ,,##########################################,,             
                       ,#########################################, ''#####,          
                    ,#############################################,,   '####,        
                  ,##################################################,,,,####,       
                ,###########''''           ''''###############################       
              ,#####''   ,,,,##########,,,,          '''####'''          '####       
            ,##' ,,,,###########################,,,                        '##       
           ' ,,###''''                  '''############,,,                           
         ,,##''                                '''############,,,,        ,,,,,,###''
      ,#''                                            '''#######################'''  
     '                                                          ''''####''''         
             ,#######,   #######,   ,#######,      ##                                
            ,#'     '#,  ##    ##  ,#'     '#,    #''#        ,####,    ,#,          
            ##       ##  ##   ,#'  ##            #'  '#       #'       ,# #          
            ##       ##  #######   ##           ,######,      #####,      #          
            '#,     ,#'  ##    ##  '#,     ,#' ,#      #,     #,   #      #          
             '#######'   ##     ##  '#######'  #'      '#     '####' #    #          



                #########################################################
                #                        -***-                          #
                #          Department of theory and spectroscopy        #
                #                                                       #
                #                      Frank Neese                      #
                #                                                       #
                #     Directorship, Architecture, Infrastructure        #
                #                    SHARK, DRIVERS                     #
                #        Core code/Algorithms in most modules           #
                #                                                       #
                #        Max Planck Institute fuer Kohlenforschung      #
                #                Kaiser Wilhelm Platz 1                 #
                #                 D-45470 Muelheim/Ruhr                 #
                #                      Germany                          #
                #                                                       #
                #                  All rights reserved                  #
                #                        -***-                          #
                #########################################################


                         Program Version 6.1.0  -  RELEASE   -
                                (GIT: $679e74b$)
                          ($2025-06-10 18:02:51 +0200$)


 With contributions from (in alphabetic order):
[Max-Planck-Institut fuer Kohlenforschung]                               
  Daniel Aravena         : Magnetic Suceptibility                        
  Michael Atanasov       : Ab Initio Ligand Field Theory (pilot matlab implementation)
  Alexander A. Auer      : GIAO ZORA, VPT2 properties, NMR spectrum      
  Ute Becker             : All parallelization in ORCA, NUMFREQ, NUMCALC 
  Giovanni Bistoni       : ED, misc. LED, open-shell LED, HFLD           
  Dmytro Bykov           : pre 5.0 version of the SCF Hessian            
  Marcos Casanova-Páez   : Triplet and SCS-CIS(D). UHF-(DLPNO)-IP/EA/STEOM-CCSD. UHF-CVS-IP/STEOM-CCSD   
  Vijay G. Chilkuri      : MRCI spin determinant printing, contributions to CSF-ICE 
  Pauline Colinet        : FMM embedding                                 
  Dipayan Datta          : RHF DLPNO-CCSD density                        
  Achintya Kumar Dutta   : EOM-CC, STEOM-CC                              
  Nicolas Foglia         : Exact transition moments, OPA infrastructure, MCD improvements    
  Dmitry Ganyushin       : Spin-Orbit,Spin-Spin,Magnetic field MRCI      
  Miquel Garcia-Rates    : C-PCM and meta-GGA Hessian, CCSD/C-PCM, Gaussian charge scheme 
  Tiago L. C. Gouveia    : GS-ROHF, GS-ROCIS                             
  Yang Guo               : DLPNO-NEVPT2, F12-NEVPT2, CIM, IAO-localization        
  Andreas Hansen         : Spin unrestricted coupled pair/coupled cluster methods 
  Ingolf Harden          : AUTO-CI MPn and infrastructure                
  Benjamin Helmich-Paris : MC-RPA, TRAH-(SCF,CASSCF), AVAS, COSX integrals, SCF dyn. polar., MC-PDFT, srDFT 
  Lee Huntington         : MR-EOM, pCC                                   
  Robert Izsak           : Overlap fitted RIJCOSX, COSX-SCS-MP3, EOM     
  Riya Kayal             : Wick's Theorem for AUTO-CI, AUTO-CI UHF-CCSDT 
  Emily Kempfer          : AUTO-CI RHF CISDT and CCSDT, approximate NEVPT4
  Christian Kollmar      : KDIIS, OOCD, Brueckner-CCSD(T), CCSD density, CASPT2, CASPT2-K, improved NEVPT2 
  Axel Koslowski         : Symmetry handling                             
  Simone Kossmann        : meta-GGA functionals, TD-DFT gradient, OOMP2, (MP2 Hessian; deprecated post 5.0) 
  Lucas Lang             : DCDCAS, Hyperfine gauge corrections, ICE-SOC+SSC
  Marvin Lechner         : AUTO-CI (C++ implementation), FIC-MRCC        
  Spencer Leger          : CASSCF response                               
  Dagmar Lenk            : GEPOL surface, SMD, ORCA-2-JSON               
  Dimitrios Liakos       : Extrapolation schemes; Compound Job, Property file
  Dimitrios Manganas     : Further ROCIS development; embedding schemes. LFT, Crystal Embedding 
  Dimitrios Pantazis     : SARC Basis sets                               
  Anastasios Papadopoulos: AUTO-CI, single reference methods and gradients 
  Taras Petrenko         : pre 6.0 DFT Hessian and TD-DFT gradient,  ECA, NRVS 
  Petra Pikulova         : Analytic Raman intensities                    
  Peter Pinski           : DLPNO-MP2, DLPNO-MP2 Gradient                 
  Shashank Vittal Rao    : ES-AILFT, MagRelax                            
  Christoph Reimann      : Effective Core Potentials                     
  Marius Retegan         : Local ZFS, SOC                                
  Christoph Riplinger    : Optimizer, TS searches, QM/MM, DLPNO-CCSD(T), (RO)-DLPNO pert. Triples 
  Michael Roemelt        : Original ROCIS implementation, recursive CI coupling coefficients
  Masaaki Saitow         : Open-shell DLPNO-CCSD energy and density      
  Barbara Sandhoefer     : DKH picture change effects                    
  Yorick L. A. Schmerwitz: GMF and freeze-and-release deltaSCF, NEB S-IDPP initial path                    
  Kantharuban Sivalingam : CASSCF convergence/infrastructure, NEVPT2, NEVPT3, NEVPT4(SD), FIC-MRCI and CEPA variants
  Bernardo de Souza      : ESD, SOC TD-DFT                               
  Georgi L. Stoychev     : AutoAux, RI-MP2 NMR, DLPNO-MP2 response, X2C  
  Van Anh Tran           : RI-MP2 g-tensors                              
  Willem Van den Heuvel  : Paramagnetic NMR                              
  Zikuan Wang            : NOTCH, Electric field optimization            
  Frank Wennmohs         : Technical directorship and infrastructure     
  Hang Xu                : AUTO-CI-Response properties                   
                                                                         
[FACCTs GmbH]                                                            
  Markus Bursch, Nicolas Foglia, Miquel Garcia-Rates, Ingolf Harden, Hagen Neugebauer, Anastasios Papadopoulos, 
  Christoph Riplinger, Bernardo de Souza, Georgi L. Stoychev                                                    
                                                                 
  APM, various basis sets, CI-OPT, improved COSX, DLPNO-Multilevel,           
  DOCKER, DRACO, updates on ESD, Fragmentator, GOAT, IRC, LR-CPCM, L-BFGS, MBIS, meta-GGA TD-DFT gradient, ML-optimized integration grids, 
  MM, NACMEs, nearIR, NEB, NEB-TS, NL-DFT gradient (VV10), 2- and 3-layer-ONIOM, interface openCOSMO-RS, QMMM,   
  Crystal-QMMM, RESP, rigid body optimization, SF, symmetry and pop. for TD-DFT, various functionals, SOLVATOR                                   
                                                                         
[Other institutions]                                                     
  V. Asgeirsson          : NEB                                           
  Christoph Bannwarth    : sTDA-DFT, sTD-DFT, PBEh-3c, B97-3c, D3        
  Giovanni Bistoni       : ETS/NOCV, ADLD/ADEX, COVALED                  
  Martin Brehm           : Molecular dynamics                            
  Ronald Cardenas        : ETS/NOCV                                      
  Martina Colucci        : COVALED                                       
  Sebastian Ehlert       : rSCAN, r2SCAN, r2SCAN-3c, D4, dhf basis sets  
  Marvin Friede          : D4 for Fr, Ra, Ac-Lr                          
  Lars Goerigk           : TD-DFT with DH, B97 family of functionals     
  Stefan Grimme          : VdW corrections, initial TS optimization, DFT functionals, gCP, sTDA/sTD-DF 
  Waldemar Hujo          : DFT-NL                                        
  H. Jonsson             : NEB                                           
  Holger Kruse           : gCP                                           
  Marcel Mueller         : wB97X-3c, vDZP basis set                      
  Hagen Neugebauer       : wr2SCAN, Native XTB                           
  Gianluca Regni         : ADLD/ADEX                                     
  Tobias Risthaus        : pre 6.0 range-separated hybrid DFT and stability analysis
  Lukas Wittmann         : regularized MP2, r2SCAN double-hybrids, wr2SCAN        
                                                                         
We gratefully acknowledge several colleagues who have allowed us to      
interface, adapt or use parts of their codes:                            
  Ed Valeev, F. Pavosevic, A. Kumar             : LibInt (2-el integral package), F12 methods 
  Garnet Chan, S. Sharma, J. Yang, R. Olivares  : DMRG                   
  Ulf Ekstrom                                   : XCFun DFT Library      
  Mihaly Kallay                                 : mrcc  (arbitrary order and MRCC methods)
  Frank Weinhold                                : gennbo (NPA and NBO analysis)           
  Simon Mueller                                 : openCOSMO-RS                            
  Christopher J. Cramer and Donald G. Truhlar   : smd solvation model                     
  S Lehtola, MJT Oliveira, MAL Marques          : LibXC Library                           
  Liviu Ungur et al                             : ANISO software                          


 Your calculation uses the libint2 library for the computation of 2-el integrals
 For citations please refer to: http://libint.valeyev.net

 Your ORCA version has been built with support for libXC version: 7.0.0
 For citations please refer to: https://libxc.gitlab.io

 This ORCA versions uses:
   CBLAS   interface :  Fast vector & matrix operations
   LAPACKE interface :  Fast linear algebra routines
   SCALAPACK package :  Parallel linear algebra routines
   Shared memory     :  Shared parallel matrices
   BLAS/LAPACK       :  OpenBLAS 0.3.29  USE64BITINT DYNAMIC_ARCH NO_AFFINITY Haswell SINGLE_THREADED
        Core in use  :  Haswell
   Copyright (c) 2011-2014, The OpenBLAS Project


  ***********************************
  * Starting time: Tue Aug 19 14:11:09 2025
  * Host name:     CHEMLAB02
  * Process ID:    3918937
  * Working dir.:  /home/vivek/mm/lab5
  ***********************************



***************************************
The coordinates will be read from file: /home/vivek/mm/lab5/6-311/nh3/dimer/dimer-input-coordinates.xyz
***************************************


================================================================================

----- Orbital basis set information -----
Your calculation utilizes the basis: 6-311G**
   H, Li - Ne  : R. Krishnan, J. S. Binkley, R. Seeger and J. A. Pople, J. Chem. Phys. 72, 650 (1980).
   Na - Ar     : A. D. McLean and G. S. Chandler J. Chem. Phys. 72, 5639, (1980).
   K  - Ca     : J.-P. Blaudeau, M. P. McGrath, L. A. Curtiss and L. Radom, J. Chem. Phys. 107, 5016 (1997).
   Ga - Kr     : L. A. Curtiss, M. P. McGrath, J.-P. Blandeau, N. E. Davis, R. C. Binning and L. Radom, J. Chem. Phys. 103, 6104 (1995).
   Pol./Diff.
   H, Li - Cl  : T. Clark, J. Chandrasekhar and P. v. R. Schleyer, J. Comp. Chem. 4, 294 (1983).
   H - Ne      : M. J. Frisch, J. A. Pople and J. S. Binkley, J. Chem. Phys. 80, 3265 (1984).

================================================================================
                                        WARNINGS
                       Please study these warnings very carefully!
================================================================================


WARNING: The frozen-core approximation for MP2-gradient calculations is turned on by default.

WARNING: Geometry Optimization
  ===> : Switching off AutoStart
         For restart on a previous wavefunction, please use MOREAD

WARNING: Post HF methods need fully converged wavefunctions
  ===> : Setting SCFConvForced true
         You can overwrite this default with %scf ConvForced false 


================================================================================
                                       INPUT FILE
================================================================================
NAME = /home/vivek/mm/lab5/6-311/nh3/dimer/dimer.inp
|  1> ! MP2 6-311G** opt numfreq
|  2> 
|  3> * xyzfile 0 1 /home/vivek/mm/lab5/6-311/nh3/dimer/dimer-input-coordinates.xyz
|  4> 
|  5>                          ****END OF INPUT****
================================================================================

                       *****************************
                       * Geometry Optimization Run *
                       *****************************

Geometry optimization settings:
Update method            Update   .... BFGS
Choice of coordinates    CoordSys .... (2022) Redundant Internals
Initial Hessian          InHess   .... Almloef's Model
Max. no of cycles        MaxIter  .... 50

Convergence Tolerances:
Energy Change            TolE     ....  5.0000e-06 Eh
Max. Gradient            TolMAXG  ....  3.0000e-04 Eh/bohr
RMS Gradient             TolRMSG  ....  1.0000e-04 Eh/bohr
Max. Displacement        TolMAXD  ....  4.0000e-03 bohr
RMS Displacement         TolRMSD  ....  2.0000e-03 bohr
Strict Convergence                .... False

------------------------------------------------------------------------------
                        ORCA OPTIMIZATION COORDINATE SETUP
------------------------------------------------------------------------------

The optimization will be done in redundant internal coordinates (2022)
Making redundant internal coordinates   ...  (2022 redundants) done
Evaluating the initial hessian          ...  (Almloef) done
Evaluating the coordinates              ...  done
Calculating the B-matrix                .... done
Calculating the G-matrix                .... done
The number of degrees of freedom        ....   47

    -----------------------------------------------------------------
                    Redundant Internal Coordinates


    -----------------------------------------------------------------
         Definition                    Initial Value    Approx d2E/dq
    -----------------------------------------------------------------
      1. B(H   1,N   0)                  1.0224         0.413397   
      2. B(H   2,N   0)                  1.0209         0.415727   
      3. B(H   3,N   0)                  1.0214         0.414938   
      4. B(H   5,N   4)                  1.0186         0.419254   
      5. B(H   6,N   0)                  2.0044         0.011212   
      6. B(H   6,N   4)                  1.0329         0.397737   
      7. B(H   6,H   3)                  2.5656         0.010000   
      8. B(H   6,H   1)                  2.2885         0.010000   
      9. B(H   7,N   4)                  1.0187         0.419160   
     10. A(H   1,N   0,H   3)          105.0457         0.299051   
     11. A(H   3,N   0,H   6)          111.8092         0.181838   
     12. A(H   2,N   0,H   6)          132.7978         0.181878   
     13. A(H   1,N   0,H   2)          105.2253         0.299142   
     14. A(H   2,N   0,H   3)          105.3098         0.299319   
     15. A(H   1,N   0,H   6)           92.4378         0.181760   
     16. A(N   0,H   1,H   6)           61.0519         0.130789   
     17. A(N   0,H   3,H   6)           46.4981         0.122219   
     18. A(H   6,N   4,H   7)          104.0597         0.297701   
     19. A(H   5,N   4,H   7)          105.6492         0.300205   
     20. A(H   5,N   4,H   6)          104.1367         0.297712   
     21. A(H   3,H   6,N   4)          160.6358         0.121902   
     22. A(N   0,H   6,H   1)           26.5103         0.107470   
     23. A(N   0,H   6,H   3)           21.6927         0.103670   
     24. A(H   1,H   6,N   4)          153.5263         0.130426   
     25. A(H   1,H   6,H   3)           38.5101         0.095609   
     26. D(H   6,H   1,N   0,H   2)    135.7542         0.213634   
     27. D(H   6,H   1,N   0,H   3)   -113.3594         0.213634   
     28. D(H   6,H   3,N   0,H   1)     98.9171         0.215642   
     29. D(H   6,H   3,N   0,H   2)   -150.2571         0.215642   
     30. D(H   5,N   4,N   0,H   3)    -45.5509         0.010000   
     31. D(H   5,N   4,N   0,H   2)     93.8895         0.010000   
     32. D(H   7,N   4,N   0,H   2)    -16.2217         0.010000   
     33. D(H   5,N   4,N   0,H   1)   -152.9815         0.010000   
     34. D(H   7,N   4,N   0,H   1)     96.9074         0.010000   
     35. D(H   7,N   4,N   0,H   3)   -155.6620         0.010000   
     36. D(H   3,H   6,N   0,H   2)    139.2977         0.010000   
     37. D(H   3,H   6,N   0,H   1)   -107.2710         0.010000   
     38. D(H   1,H   6,N   0,H   3)    107.2710         0.010000   
     39. D(N   4,H   6,H   1,N   0)   -174.3756         0.010000   
     40. D(H   1,H   6,N   0,H   2)   -113.4313         0.010000   
     41. D(H   3,H   6,N   4,H   5)    -42.7872         0.211593   
     42. D(H   1,H   6,N   4,H   7)     91.9338         0.211593   
     43. D(H   1,H   6,N   4,H   5)   -157.5889         0.211593   
     44. D(H   1,H   6,H   3,N   0)    -43.1996         0.010000   
     45. D(N   4,H   6,H   3,N   0)    177.3353         0.010000   
     46. D(H   3,H   6,N   4,H   7)   -153.2645         0.211593   
     47. D(H   3,H   6,H   1,N   0)     34.5321         0.010000   
    -----------------------------------------------------------------

Number of atoms                         .... 8
Number of degrees of freedom            .... 47


         *************************************************************
         *                GEOMETRY OPTIMIZATION CYCLE   1            *
         *************************************************************
---------------------------------
CARTESIAN COORDINATES (ANGSTROEM)
---------------------------------
  N     -3.354995   -0.348029   -0.094160
  H     -3.194559   -0.449027    0.910538
  H     -2.586892   -0.851282   -0.540239
  H     -4.189714   -0.904349   -0.286619
  N     -3.962086    2.615914    0.166617
  H     -4.577576    2.825544   -0.617455
  H     -3.784264    1.601785    0.083632
  H     -3.067049    3.043831   -0.064602

----------------------------
CARTESIAN COORDINATES (A.U.)
----------------------------
  NO LB      ZA    FRAG     MASS         X           Y           Z
   0 N     7.0000    0    14.007   -6.340022   -0.657679   -0.177937
   1 H     1.0000    0     1.008   -6.036842   -0.848538    1.720667
   2 H     1.0000    0     1.008   -4.888517   -1.608690   -1.020904
   3 H     1.0000    0     1.008   -7.917412   -1.708972   -0.541631
   4 N     7.0000    0    14.007   -7.487257    4.943361    0.314860
   5 H     1.0000    0     1.008   -8.650365    5.339504   -1.166821
   6 H     1.0000    0     1.008   -7.151223    3.026935    0.158042
   7 H     1.0000    0     1.008   -5.795883    5.752007   -0.122080

--------------------------------
INTERNAL COORDINATES (ANGSTROEM)
--------------------------------
 N      0   0   0     0.000000000000     0.00000000     0.00000000
 H      1   0   0     1.022427688056     0.00000000     0.00000000
 H      1   2   0     1.020897778849   105.22526995     0.00000000
 H      1   2   3     1.021414811936   105.04568962   110.88640801
 N      1   2   3     3.036695940205    92.48743713   225.09814467
 H      5   1   2     1.018597849096   104.80736123   207.01853103
 H      5   1   2     1.032939883318     1.65538256   273.31582708
 H      5   1   2     1.018659126607   102.40763986    96.90738303

---------------------------
INTERNAL COORDINATES (A.U.)
---------------------------
 N      0   0   0     0.000000000000     0.00000000     0.00000000
 H      1   0   0     1.932108322165     0.00000000     0.00000000
 H      1   2   0     1.929217212753   105.22526995     0.00000000
 H      1   2   3     1.930194263689   105.04568962   110.88640801
 N      1   2   3     5.738523678978    92.48743713   225.09814467
 H      5   1   2     1.924870975394   104.80736123   207.01853103
 H      5   1   2     1.951973492277     1.65538256   273.31582708
 H      5   1   2     1.924986773106   102.40763986    96.90738303

---------------------
BASIS SET INFORMATION
---------------------
There are 2 groups of distinct atoms

 Group   1 Type N   : 11s5p1d contracted to 4s3p1d pattern {6311/311/1}
 Group   2 Type H   : 5s1p contracted to 3s1p pattern {311/1}

Atom   0N    basis set group =>   1
Atom   1H    basis set group =>   2
Atom   2H    basis set group =>   2
Atom   3H    basis set group =>   2
Atom   4N    basis set group =>   1
Atom   5H    basis set group =>   2
Atom   6H    basis set group =>   2
Atom   7H    basis set group =>   2
------------------------------------------------------------------------------
                             ORCA STARTUP CALCULATIONS
------------------------------------------------------------------------------
------------------------------------------------------------------------------
                   ___                                                        
                  /   \      - P O W E R E D   B Y -                         
                 /     \                                                     
                 |  |  |   _    _      __       _____    __    __             
                 |  |  |  | |  | |    /  \     |  _  \  |  |  /  |          
                  \  \/   | |  | |   /    \    | | | |  |  | /  /          
                 / \  \   | |__| |  /  /\  \   | |_| |  |  |/  /          
                |  |  |   |  __  | /  /__\  \  |    /   |      \           
                |  |  |   | |  | | |   __   |  |    \   |  |\   \          
                \     /   | |  | | |  |  |  |  | |\  \  |  | \   \       
                 \___/    |_|  |_| |__|  |__|  |_| \__\ |__|  \__/        
                                                                              
                      - O R C A' S   B I G   F R I E N D -                    
                                      &                                       
                       - I N T E G R A L  F E E D E R -                       
                                                                              
 v1 FN, 2020, v2 2021, v3 2022-2024                                           
------------------------------------------------------------------------------


----------------------
SHARK INTEGRAL PACKAGE
----------------------

Number of atoms                             ...      8
Number of basis functions                   ...     72
Number of shells                            ...     40
Maximum angular momentum                    ...      2
Integral batch strategy                     ... SHARK/LIBINT Hybrid
RI-J (if used) integral strategy            ... SPLIT-RIJ (Revised 2003 algorithm where possible)
Printlevel                                  ...      1
Contraction scheme used                     ... SEGMENTED contraction
Prescreening option                         ... SCHWARTZ
   Thresh                                   ... 2.500e-11
   Tcut                                     ... 2.500e-12
   Tpresel                                  ... 2.500e-12 
Coulomb Range Separation                    ... NOT USED
Exchange Range Separation                   ... NOT USED
Multipole approximations                    ... NOT USED
Finite Nucleus Model                        ... NOT USED
CABS basis                                  ... NOT available
Auxiliary Coulomb fitting basis             ... NOT available
Auxiliary J/K fitting basis                 ... NOT available
Auxiliary Correlation fitting basis         ... NOT available
Auxiliary 'external' fitting basis          ... NOT available

Checking pre-screening integrals            ... done (  0.0 sec) Dimension = 40
   => SHARK Basis and OBASIS are compatible. Storing Pre-screening
Shell pair information
Shell pair cut-off parameter TPreSel        ...   2.5e-12
Total number of shell pairs                 ...       820
Shell pairs after pre-screening             ...       787
Total number of primitive shell pairs       ...      2545
Primitive shell pairs kept                  ...      1997
          la=0 lb=0:    331 shell pairs
          la=1 lb=0:    300 shell pairs
          la=1 lb=1:     77 shell pairs
          la=2 lb=0:     52 shell pairs
          la=2 lb=1:     24 shell pairs
          la=2 lb=2:      3 shell pairs

Checking whether 4 symmetric matrices of dimension 72 fit in memory
:Max Core in MB      =   4096.00
 MB in use           =      2.15
 MB left             =   4093.85
 MB needed           =      0.08
 Data fit in memory  = YES
Calculating Nuclear repulsion               ... done (  0.0 sec) ENN=     40.844099092616 Eh

Diagonalization of the overlap matrix:
Smallest eigenvalue                        ... 7.596e-03
Time for diagonalization                   ...    0.001 sec
Threshold for overlap eigenvalues          ... 1.000e-07
Number of eigenvalues below threshold      ... 0
Time for construction of square roots      ...    0.000 sec
Total time needed                          ...    0.001 sec

-------------------
DFT GRID GENERATION
-------------------

General Integration Accuracy     IntAcc      ... 4.388
Radial Grid Type                 RadialGrid  ... OptM3 with GC (2021)
Angular Grid (max. ang.)         AngularGrid ... 4 (Lebedev-302)
Angular grid pruning method      GridPruning ... 4 (adaptive)
Weight generation scheme         WeightScheme... mBecke (2022)
Basis function cutoff            BFCut       ... 1.0000e-11
Integration weight cutoff        WCut        ... 1.0000e-14
Partially contracted basis set               ... off
Rotationally invariant grid construction     ... off
Angular grids for H and He will be reduced by one unit

Total number of grid points                  ...    31871
Total number of batches                      ...      502
Average number of points per batch           ...       63
Average number of grid points per atom       ...     3984
Grids setup in   0.1 sec
Initializing property integral containers    ... done (  0.0 sec)

SHARK setup successfully completed in   1.6 seconds

Maximum memory used throughout the entire STARTUP-calculation: 11.9 MB
-------------------------------------------------------------------------------
                                 ORCA GUESS
                   Start orbitals & Density for SCF / CASSCF
-------------------------------------------------------------------------------

------------
SCF SETTINGS
------------
Hamiltonian:
 Ab initio Hamiltonian  Method          .... Hartree-Fock(GTOs)


General Settings:
 Integral files         IntName         .... /home/vivek/mm/lab5/6-311/nh3/dimer/dimer
 Hartree-Fock type      HFTyp           .... RHF
 Total Charge           Charge          ....    0
 Multiplicity           Mult            ....    1
 Number of Electrons    NEL             ....   20
 Basis Dimension        Dim             ....   72
 Nuclear Repulsion      ENuc            ....     40.8440990926 Eh

Convergence Acceleration:
 AO-DIIS                CNVDIIS         .... on
   Start iteration      DIISMaxIt       ....    12
   Startup error        DIISStart       ....  0.200000
   # of expansion vecs  DIISMaxEq       ....     5
   Bias factor          DIISBfac        ....   1.050
   Max. coefficient     DIISMaxC        ....  10.000
 MO-DIIS                CNVKDIIS        .... off
 Trust-Rad. Augm. Hess. CNVTRAH         .... auto
   Auto Start mean grad. ratio tolernc. ....  1.125000
   Auto Start start iteration           ....    50
   Auto Start num. interpolation iter.  ....    10
   Max. Number of Micro iterations      ....    24
   Max. Number of Macro iterations      .... Maxiter - #DIIS iter
   Number of Davidson start vectors     ....     2
   Converg. threshold    (grad. norm)   ....   1.000e-05
   Grad. Scal. Fac. for Micro threshold ....   0.100
   Minimum threshold for Micro iter.    ....   1.000e-02
   NR start threshold (gradient norm)   ....   1.000e-04
   Initial trust radius                 ....   0.400
   Minimum AH scaling param. (alpha)    ....   1.000
   Maximum AH scaling param. (alpha)    .... 1000.000
   Quad. conv. algorithm                .... NR
   White noise on init. David. guess    .... on
   Maximum white noise                  ....   0.010
   Pseudo random numbers                .... off
   Inactive MOs                         .... canonical
   Orbital update algorithm             .... Taylor
   Preconditioner                       .... Diag
   Full preconditioner red. dimension   ....   250
 SOSCF                 CNVSOSCF           .... on
   Start iteration     SOSCFMaxIt         ....   150
   Startup grad/error  SOSCFStart         ....  0.003300
   Hessian update      SOSCFHessUp        .... L-BFGS
   Autom. constraints  SOSCFAutoConstrain .... off
 Level Shifting         CNVShift        .... on
   Level shift para.    LevelShift      ....    0.2500
   Turn off err/grad.   ShiftErr        ....    0.0010
 Zerner damping         CNVZerner       .... off
 Static damping         CNVDamp         .... on
   Fraction old density DampFac         ....    0.7000
   Max. Damping (<1)    DampMax         ....    0.9800
   Min. Damping (>=0)   DampMin         ....    0.0000
   Turn off err/grad.   DampErr         ....    0.1000

SCF Procedure:
 Maximum # iterations   MaxIter         ....   125
 SCF integral mode      SCFMode         .... Direct
   Integral package                     .... SHARK and LIBINT hybrid scheme
 Reset frequency        DirectResetFreq ....    20
 Integral Threshold     Thresh          ....  2.500e-11 Eh
 Primitive CutOff       TCut            ....  2.500e-12 Eh

Convergence Tolerance:
 Convergence Check Mode ConvCheckMode   .... Total+1el-Energy
 Convergence forced     ConvForced      .... 1
 Energy Change          TolE            ....  1.000e-08 Eh
 1-El. energy change                    ....  1.000e-05 Eh
 Orbital Gradient       TolG            ....  1.000e-05
 Orbital Rotation angle TolX            ....  1.000e-05
 DIIS Error             TolErr          ....  5.000e-07

------------------------------
INITIAL GUESS: MODEL POTENTIAL
------------------------------
Loading Hartree-Fock densities                     ... done
Calculating cut-offs                               ... done
Initializing the effective Hamiltonian             ... done
Setting up the integral package (SHARK)            ... done
Starting the Coulomb interaction                   ... done (   0.0 sec)
Making the grid                                    ... done (   0.1 sec)
Mapping shells                                     ... done
Starting the XC term evaluation                    ... done (   0.0 sec)
Transforming the Hamiltonian                       ... done (   0.0 sec)
Diagonalizing the Hamiltonian                      ... done (   0.0 sec)
Back transforming the eigenvectors                 ... done (   0.0 sec)
Now organizing SCF variables                       ... done
                      ------------------
                      INITIAL GUESS DONE (   0.1 sec)
                      ------------------
             **** ENERGY FILE WAS UPDATED (/home/vivek/mm/lab5/6-311/nh3/dimer/dimer.en.tmp) ****
Finished Guess after   0.2 sec
Maximum memory used throughout the entire GUESS-calculation: 4.7 MB

-------------------------------------------------------------------------------------------
                                      ORCA LEAN-SCF
                              memory conserving SCF solver
-------------------------------------------------------------------------------------------

----------------------------------------D-I-I-S--------------------------------------------
Iteration    Energy (Eh)           Delta-E    RMSDP     MaxDP     DIISErr   Damp  Time(sec)
-------------------------------------------------------------------------------------------
               ***  Starting incremental Fock matrix formation  ***
    1    -112.1534627499770664     0.00e+00  3.57e-03  6.82e-02  4.23e-01  0.700   0.2
    2    -112.2568044421324629    -1.03e-01  2.56e-03  4.33e-02  2.55e-01  0.700   0.2
                               ***Turning on AO-DIIS***
    3    -112.3134098925125812    -5.66e-02  1.06e-03  1.25e-02  1.41e-01  0.700   0.3
    4    -112.3475195495211807    -3.41e-02  6.46e-04  5.72e-03  9.40e-02  0.700   0.1
    5    -112.3699756654152822    -2.25e-02  1.53e-03  1.37e-02  6.58e-02  0.000   0.2
                              *** Initializing SOSCF ***
---------------------------------------S-O-S-C-F--------------------------------------
Iteration    Energy (Eh)           Delta-E    RMSDP     MaxDP     MaxGrad    Time(sec)
--------------------------------------------------------------------------------------
    6    -112.4201282387554812    -5.02e-02  2.44e-04  2.62e-03  3.07e-03     0.2
               *** Restarting incremental Fock matrix formation ***
    7    -112.4202070211113522    -7.88e-05  1.59e-04  1.94e-03  8.31e-04     0.2
    8    -112.4202274976417044    -2.05e-05  1.30e-04  1.67e-03  3.71e-04     0.2
    9    -112.4202316885462523    -4.19e-06  1.45e-05  2.35e-04  1.72e-04     0.1
   10    -112.4202319284210461    -2.40e-07  2.62e-06  2.64e-05  2.88e-05     0.1
   11    -112.4202319390446263    -1.06e-08  1.54e-06  1.64e-05  6.75e-06     0.1
   12    -112.4202319407487636    -1.70e-09  3.22e-07  4.63e-06  2.24e-06     0.1
                 **** Energy Check signals convergence ****

               *****************************************************
               *                     SUCCESS                       *
               *           SCF CONVERGED AFTER  12 CYCLES          *
               *****************************************************

             **** ENERGY FILE WAS UPDATED (/home/vivek/mm/lab5/6-311/nh3/dimer/dimer.en.tmp) ****

----------------
TOTAL SCF ENERGY
----------------

Total Energy       :       -112.42023194073327 Eh           -3059.11003 eV

Components:
Nuclear Repulsion  :         40.84409909261639 Eh            1111.42444 eV
Electronic Energy  :       -153.26433103334966 Eh           -4170.53447 eV
One Electron Energy:       -233.35339520610046 Eh           -6349.86870 eV
Two Electron Energy:         80.08906417275080 Eh            2179.33423 eV

Virial components:
Potential Energy   :       -224.74970531264870 Eh           -6115.75040 eV
Kinetic Energy     :        112.32947337191541 Eh            3056.64037 eV
Virial Ratio       :          2.00080796754488

---------------
SCF CONVERGENCE
---------------

  Last Energy change         ...    1.7041e-09  Tolerance :   1.0000e-08
  Last MAX-Density change    ...    4.6267e-06  Tolerance :   1.0000e-07
  Last RMS-Density change    ...    3.2168e-07  Tolerance :   5.0000e-09
  Last DIIS Error            ...    3.0654e-03  Tolerance :   5.0000e-07
  Last Orbital Gradient      ...    2.2394e-06  Tolerance :   1.0000e-05
  Last Orbital Rotation      ...    4.3923e-06  Tolerance :   1.0000e-05


----------------
ORBITAL ENERGIES
----------------

  NO   OCC          E(Eh)            E(eV) 
   0   2.0000     -15.554556      -423.2610 
   1   2.0000     -15.494072      -421.6151 
   2   2.0000      -1.156456       -31.4688 
   3   2.0000      -1.098436       -29.8900 
   4   2.0000      -0.639769       -17.4090 
   5   2.0000      -0.637105       -17.3365 
   6   2.0000      -0.585481       -15.9318 
   7   2.0000      -0.582537       -15.8516 
   8   2.0000      -0.447781       -12.1847 
   9   2.0000      -0.391441       -10.6517 
  10   0.0000       0.139538         3.7970 
  11   0.0000       0.197271         5.3680 
  12   0.0000       0.215388         5.8610 
  13   0.0000       0.220521         6.0007 
  14   0.0000       0.251921         6.8551 
  15   0.0000       0.370416        10.0795 
  16   0.0000       0.474802        12.9200 
  17   0.0000       0.491969        13.3872 
  18   0.0000       0.538058        14.6413 
  19   0.0000       0.570716        15.5300 
  20   0.0000       0.652884        17.7659 
*Only the first 10 virtual orbitals were printed.

                    ********************************
                    * MULLIKEN POPULATION ANALYSIS *
                    ********************************

-----------------------
MULLIKEN ATOMIC CHARGES
-----------------------
   0 N :   -0.563885
   1 H :    0.204776
   2 H :    0.197104
   3 H :    0.198643
   4 N :   -0.593594
   5 H :    0.168636
   6 H :    0.220133
   7 H :    0.168188
Sum of atomic charges:   -0.0000000

--------------------------------
MULLIKEN REDUCED ORBITAL CHARGES
--------------------------------
  0 N s       :     3.538607  s :     3.538607
      pz      :     1.194948  p :     3.999948
      px      :     1.145039
      py      :     1.659960
      dz2     :     0.009242  d :     0.025330
      dxz     :     0.002304
      dyz     :     0.002721
      dx2y2   :     0.000415
      dxy     :     0.010649

  1 H s       :     0.751577  s :     0.751577
      pz      :     0.023807  p :     0.043647
      px      :     0.007994
      py      :     0.011846

  2 H s       :     0.758308  s :     0.758308
      pz      :     0.011925  p :     0.044588
      px      :     0.017427
      py      :     0.015236

  3 H s       :     0.757202  s :     0.757202
      pz      :     0.008870  p :     0.044155
      px      :     0.019556
      py      :     0.015729

  4 N s       :     3.531942  s :     3.531942
      pz      :     1.609943  p :     4.036366
      px      :     1.193824
      py      :     1.232599
      dz2     :     0.005555  d :     0.025286
      dxz     :     0.007291
      dyz     :     0.001936
      dx2y2   :     0.007058
      dxy     :     0.003446

  5 H s       :     0.786736  s :     0.786736
      pz      :     0.019826  p :     0.044628
      px      :     0.014978
      py      :     0.009824

  6 H s       :     0.730940  s :     0.730940
      pz      :     0.010768  p :     0.048927
      px      :     0.008521
      py      :     0.029638

  7 H s       :     0.787215  s :     0.787215
      pz      :     0.012394  p :     0.044597
      px      :     0.020212
      py      :     0.011991



                     *******************************
                     * LOEWDIN POPULATION ANALYSIS *
                     *******************************

----------------------
LOEWDIN ATOMIC CHARGES
----------------------
   0 N :   -0.033134
   1 H :    0.035080
   2 H :    0.031328
   3 H :    0.032381
   4 N :   -0.103011
   5 H :    0.014820
   6 H :    0.007849
   7 H :    0.014686

-------------------------------
LOEWDIN REDUCED ORBITAL CHARGES
-------------------------------
  0 N s       :     3.068856  s :     3.068856
      pz      :     1.192552  p :     3.930348
      px      :     1.146530
      py      :     1.591267
      dz2     :     0.013108  d :     0.033930
      dxz     :     0.004467
      dyz     :     0.002576
      dx2y2   :     0.000615
      dxy     :     0.013163

  1 H s       :     0.837080  s :     0.837080
      pz      :     0.067640  p :     0.127840
      px      :     0.020869
      py      :     0.039331

  2 H s       :     0.840873  s :     0.840873
      pz      :     0.030836  p :     0.127798
      px      :     0.046866
      py      :     0.050097

  3 H s       :     0.839567  s :     0.839567
      pz      :     0.023236  p :     0.128052
      px      :     0.051900
      py      :     0.052917

  4 N s       :     3.074589  s :     3.074589
      pz      :     1.572350  p :     3.994710
      px      :     1.202799
      py      :     1.219560
      dz2     :     0.006422  d :     0.033712
      dxz     :     0.009429
      dyz     :     0.001664
      dx2y2   :     0.010467
      dxy     :     0.005730

  5 H s       :     0.856486  s :     0.856486
      pz      :     0.063017  p :     0.128693
      px      :     0.039661
      py      :     0.026015

  6 H s       :     0.845655  s :     0.845655
      pz      :     0.035020  p :     0.146496
      px      :     0.023413
      py      :     0.088063

  7 H s       :     0.856670  s :     0.856670
      pz      :     0.039004  p :     0.128643
      px      :     0.057484
      py      :     0.032155



                      *****************************
                      * MAYER POPULATION ANALYSIS *
                      *****************************

  NA   - Mulliken gross atomic population
  ZA   - Total nuclear charge
  QA   - Mulliken gross atomic charge
  VA   - Mayer's total valence
  BVA  - Mayer's bonded valence
  FA   - Mayer's free valence

  ATOM       NA         ZA         QA         VA         BVA        FA
  0 N      7.5639     7.0000    -0.5639     2.9410     2.9410    -0.0000
  1 H      0.7952     1.0000     0.2048     0.9555     0.9555    -0.0000
  2 H      0.8029     1.0000     0.1971     0.9650     0.9650     0.0000
  3 H      0.8014     1.0000     0.1986     0.9616     0.9616    -0.0000
  4 N      7.5936     7.0000    -0.5936     2.8792     2.8792     0.0000
  5 H      0.8314     1.0000     0.1686     0.9722     0.9722    -0.0000
  6 H      0.7799     1.0000     0.2201     0.9862     0.9862    -0.0000
  7 H      0.8318     1.0000     0.1682     0.9724     0.9724    -0.0000

  Mayer bond orders larger than 0.100000
B(  0-N ,  1-H ) :   0.9563 B(  0-N ,  2-H ) :   0.9628 B(  0-N ,  3-H ) :   0.9602 
B(  4-N ,  5-H ) :   0.9758 B(  4-N ,  6-H ) :   0.9287 B(  4-N ,  7-H ) :   0.9758 


-------
TIMINGS
-------

Total SCF time: 0 days 0 hours 0 min 2 sec 

Total time                  ....       2.245 sec
Sum of individual times     ....       2.115 sec  ( 94.2%)

SCF preparation             ....       0.068 sec  (  3.0%)
Fock matrix formation       ....       2.008 sec  ( 89.5%)
  Startup                   ....       0.001 sec  (  0.0% of F)
  Coulomb+Exchange Fock     ....       2.119 sec  (105.5% of F)
Diagonalization             ....       0.000 sec  (  0.0%)
Density matrix formation    ....       0.003 sec  (  0.1%)
Total Energy calculation    ....       0.001 sec  (  0.0%)
Population analysis         ....       0.002 sec  (  0.1%)
Orbital Transformation      ....       0.002 sec  (  0.1%)
Orbital Orthonormalization  ....       0.000 sec  (  0.0%)
DIIS solution               ....       0.025 sec  (  1.1%)
SOSCF solution              ....       0.005 sec  (  0.2%)
Finished LeanSCF after   2.2 sec

Maximum memory used throughout the entire LEANSCF-calculation: 8.2 MB

------------------------------------------------------------------------------
                                ORCA  MP2 
------------------------------------------------------------------------------

Freezing NCore=4 chemical core electrons
MP2 will be done in the AO integral direct mode
The Q1-step will be done using symmetric double matrices
Dimension of the basis                    ...   72
Memory devoted for MP2                    ... 4096 MB   
Memory needed for all in one shot         ...   13 MB
Number of MOs that can be treated together... 2836      
MP2 density construction                  ... relaxed
The MP2 gradient is requested => amplitudes will be stored on disk
Total number of MOs              ...    8
Number of MOs treated per batch  ...    8 
Number of batches necessary      ...    1 
OPERATORS   0/  0 PASS   0
-----------------------------------------------
 MP2 CORRELATION ENERGY   :     -0.402480380 Eh
-----------------------------------------------


---------------------
MP2 DENSITY FORMATION
---------------------

Completing the external part of the density      ... done
Storing the unrelaxed density                    ... done

Calculating G(D)                                 ... done
Completing the Lagrangian                        ... done
Solving the Z-vector equations                   ... 
-------------------
SHARK CP-SCF DRIVER
-------------------

Dimension of the orbital basis          ...     72
Dimension of the CPSCF-problem          ...    620
Number of operators                     ...      1
Max. number of iterations               ...    128
Convergence Tolerance                   ... 1.0e-04
Number of perturbations                 ...      1
Perturbation type                       ... REAL

----------------------------
POPLE LINEAR EQUATION SOLVER
----------------------------

  ITERATION   0:   ||err||_max =   4.3190e-02 (   0.3 sec)
  ITERATION   1:   ||err||_max =   9.4462e-03 (   0.3 sec)
  ITERATION   2:   ||err||_max =   1.9455e-03 (   0.3 sec)
  ITERATION   3:   ||err||_max =   3.4990e-04 (   0.3 sec)
  ITERATION   4:   ||err||_max =   1.5240e-04 (   0.4 sec)
  ITERATION   5:   ||err||_max =   3.2068e-05 (   0.4 sec)
                                                 ... done
Finalizing the relaxed density                   ... done
Transforming P to the AO basis                   ... done
Storing the relaxed density                      ... done

------------------------------------
ENERGY WEIGHTED DENSITY FINALIZATION
------------------------------------

Gathering the parts of the W-matrix              ...                                                      done
Forming the Z-density                            ... done
Transforming Z to the AO basis                   ... done
Calculating G(Z)                                 ... done
Finalizing the W-matrix                          ...                                                      done
Transforming W to the AO basis and storing       ... done

                *********************************************
                * UNRELAXED MP2 DENSITY POPULATION ANALYSIS *
                *********************************************

------------------------------------------------------------------------------
                           ORCA POPULATION ANALYSIS
------------------------------------------------------------------------------
Input electron density              ... /home/vivek/mm/lab5/6-311/nh3/dimer/dimer.pmp2ur
BaseName (.gbw .S,...)              ... /home/vivek/mm/lab5/6-311/nh3/dimer/dimer

                    ********************************
                    * MULLIKEN POPULATION ANALYSIS *
                    ********************************

-----------------------
MULLIKEN ATOMIC CHARGES
-----------------------
   0 N :   -0.559414
   1 H :    0.203547
   2 H :    0.196000
   3 H :    0.197557
   4 N :   -0.590148
   5 H :    0.167612
   6 H :    0.217678
   7 H :    0.167169
Sum of atomic charges:    0.0000000

--------------------------------
MULLIKEN REDUCED ORBITAL CHARGES
--------------------------------
  0 N s       :     3.534863  s :     3.534863
      pz      :     1.190535  p :     3.980984
      px      :     1.141220
      py      :     1.649230
      dz2     :     0.012678  d :     0.043567
      dxz     :     0.005846
      dyz     :     0.006532
      dx2y2   :     0.004295
      dxy     :     0.014215
  1 H s       :     0.750121  s :     0.750121
      pz      :     0.023817  p :     0.046332
      px      :     0.009281
      py      :     0.013233
  2 H s       :     0.756794  s :     0.756794
      pz      :     0.012905  p :     0.047206
      px      :     0.017907
      py      :     0.016395
  3 H s       :     0.755666  s :     0.755666
      pz      :     0.010110  p :     0.046777
      px      :     0.019850
      py      :     0.016817
  4 N s       :     3.528405  s :     3.528405
      pz      :     1.601072  p :     4.018320
      px      :     1.189655
      py      :     1.227594
      dz2     :     0.009249  d :     0.043423
      dxz     :     0.010872
      dyz     :     0.005752
      dx2y2   :     0.010518
      dxy     :     0.007032
  5 H s       :     0.784928  s :     0.784928
      pz      :     0.020629  p :     0.047460
      px      :     0.015711
      py      :     0.011121
  6 H s       :     0.730811  s :     0.730811
      pz      :     0.012132  p :     0.051512
      px      :     0.009831
      py      :     0.029549
  7 H s       :     0.785401  s :     0.785401
      pz      :     0.013785  p :     0.047431
      px      :     0.020575
      py      :     0.013071


                     *******************************
                     * LOEWDIN POPULATION ANALYSIS *
                     *******************************

----------------------
LOEWDIN ATOMIC CHARGES
----------------------
   0 N :   -0.028677
   1 H :    0.033946
   2 H :    0.030287
   3 H :    0.031306
   4 N :   -0.099885
   5 H :    0.013679
   6 H :    0.005801
   7 H :    0.013542

-------------------------------
LOEWDIN REDUCED ORBITAL CHARGES
-------------------------------
  0 N s       :     3.066742  s :     3.066742
      pz      :     1.186800  p :     3.908339
      px      :     1.141200
      py      :     1.580340
      dz2     :     0.017090  d :     0.053596
      dxz     :     0.008075
      dyz     :     0.006519
      dx2y2   :     0.004552
      dxy     :     0.017359
  1 H s       :     0.833539  s :     0.833539
      pz      :     0.069672  p :     0.132515
      px      :     0.022240
      py      :     0.040603
  2 H s       :     0.837243  s :     0.837243
      pz      :     0.032241  p :     0.132470
      px      :     0.048585
      py      :     0.051643
  3 H s       :     0.835958  s :     0.835958
      pz      :     0.024573  p :     0.132736
      px      :     0.053645
      py      :     0.054518
  4 N s       :     3.072676  s :     3.072676
      pz      :     1.563177  p :     3.973870
      px      :     1.197103
      py      :     1.213591
      dz2     :     0.010516  d :     0.053339
      dxz     :     0.013469
      dyz     :     0.005534
      dx2y2   :     0.014361
      dxy     :     0.009459
  5 H s       :     0.852679  s :     0.852679
      pz      :     0.064988  p :     0.133642
      px      :     0.041244
      py      :     0.027411
  6 H s       :     0.843363  s :     0.843363
      pz      :     0.036307  p :     0.150836
      px      :     0.024790
      py      :     0.089739
  7 H s       :     0.852865  s :     0.852865
      pz      :     0.040403  p :     0.133593
      px      :     0.059544
      py      :     0.033646


                      *****************************
                      * MAYER POPULATION ANALYSIS *
                      *****************************

  NA   - Mulliken gross atomic population
  ZA   - Total nuclear charge
  QA   - Mulliken gross atomic charge
  VA   - Mayer's total valence
  BVA  - Mayer's bonded valence
  FA   - Mayer's free valence

  ATOM       NA         ZA         QA         VA         BVA        FA
  0 N      7.5594     7.0000    -0.5594     3.1282     2.8171     0.3111
  1 H      0.7965     1.0000     0.2035     0.9638     0.9141     0.0497
  2 H      0.8040     1.0000     0.1960     0.9731     0.9234     0.0497
  3 H      0.8024     1.0000     0.1976     0.9697     0.9201     0.0497
  4 N      7.5901     7.0000    -0.5901     3.0675     2.7570     0.3104
  5 H      0.8324     1.0000     0.1676     0.9811     0.9300     0.0511
  6 H      0.7823     1.0000     0.2177     0.9942     0.9450     0.0492
  7 H      0.8328     1.0000     0.1672     0.9813     0.9302     0.0511

  Mayer bond orders larger than 0.100000
B(  0-N ,  1-H ) :   0.9158 B(  0-N ,  2-H ) :   0.9221 B(  0-N ,  3-H ) :   0.9196 
B(  4-N ,  5-H ) :   0.9345 B(  4-N ,  6-H ) :   0.8899 B(  4-N ,  7-H ) :   0.9345 



                *******************************************
                * RELAXED MP2 DENSITY POPULATION ANALYSIS *
                *******************************************

------------------------------------------------------------------------------
                           ORCA POPULATION ANALYSIS
------------------------------------------------------------------------------
Input electron density              ... /home/vivek/mm/lab5/6-311/nh3/dimer/dimer.pmp2re
BaseName (.gbw .S,...)              ... /home/vivek/mm/lab5/6-311/nh3/dimer/dimer

                    ********************************
                    * MULLIKEN POPULATION ANALYSIS *
                    ********************************

-----------------------
MULLIKEN ATOMIC CHARGES
-----------------------
   0 N :   -0.549740
   1 H :    0.205670
   2 H :    0.197467
   3 H :    0.199279
   4 N :   -0.586361
   5 H :    0.169223
   6 H :    0.195723
   7 H :    0.168739
Sum of atomic charges:   -0.0000000

--------------------------------
MULLIKEN REDUCED ORBITAL CHARGES
--------------------------------
  0 N s       :     3.534353  s :     3.534353
      pz      :     1.192968  p :     3.973789
      px      :     1.143711
      py      :     1.637110
      dz2     :     0.011802  d :     0.041598
      dxz     :     0.005472
      dyz     :     0.006503
      dx2y2   :     0.004357
      dxy     :     0.013465
  1 H s       :     0.749442  s :     0.749442
      pz      :     0.021084  p :     0.044887
      px      :     0.009717
      py      :     0.014086
  2 H s       :     0.756844  s :     0.756844
      pz      :     0.012702  p :     0.045689
      px      :     0.016404
      py      :     0.016582
  3 H s       :     0.755367  s :     0.755367
      pz      :     0.010478  p :     0.045354
      px      :     0.017928
      py      :     0.016948
  4 N s       :     3.523802  s :     3.523802
      pz      :     1.602155  p :     4.021063
      px      :     1.192174
      py      :     1.226734
      dz2     :     0.008981  d :     0.041496
      dxz     :     0.010386
      dyz     :     0.005756
      dx2y2   :     0.009755
      dxy     :     0.006618
  5 H s       :     0.784697  s :     0.784697
      pz      :     0.019681  p :     0.046080
      px      :     0.014867
      py      :     0.011531
  6 H s       :     0.754845  s :     0.754845
      pz      :     0.012805  p :     0.049432
      px      :     0.010266
      py      :     0.026361
  7 H s       :     0.785211  s :     0.785211
      pz      :     0.014481  p :     0.046050
      px      :     0.018584
      py      :     0.012984


                     *******************************
                     * LOEWDIN POPULATION ANALYSIS *
                     *******************************

----------------------
LOEWDIN ATOMIC CHARGES
----------------------
   0 N :   -0.027817
   1 H :    0.035893
   2 H :    0.032499
   3 H :    0.033473
   4 N :   -0.104410
   5 H :    0.015345
   6 H :   -0.000167
   7 H :    0.015183

-------------------------------
LOEWDIN REDUCED ORBITAL CHARGES
-------------------------------
  0 N s       :     3.067913  s :     3.067913
      pz      :     1.190516  p :     3.908822
      px      :     1.145748
      py      :     1.572558
      dz2     :     0.016041  d :     0.051082
      dxz     :     0.007600
      dyz     :     0.006435
      dx2y2   :     0.004486
      dxy     :     0.016520
  1 H s       :     0.832093  s :     0.832093
      pz      :     0.068261  p :     0.132014
      px      :     0.022493
      py      :     0.041259
  2 H s       :     0.835663  s :     0.835663
      pz      :     0.032050  p :     0.131838
      px      :     0.047758
      py      :     0.052030
  3 H s       :     0.834398  s :     0.834398
      pz      :     0.024796  p :     0.132129
      px      :     0.052473
      py      :     0.054860
  4 N s       :     3.074055  s :     3.074055
      pz      :     1.562365  p :     3.979441
      px      :     1.200757
      py      :     1.216319
      dz2     :     0.010139  d :     0.050914
      dxz     :     0.012820
      dyz     :     0.005498
      dx2y2   :     0.013519
      dxy     :     0.008938
  5 H s       :     0.851188  s :     0.851188
      pz      :     0.065001  p :     0.133468
      px      :     0.040740
      py      :     0.027727
  6 H s       :     0.849314  s :     0.849314
      pz      :     0.037048  p :     0.150853
      px      :     0.025153
      py      :     0.088652
  7 H s       :     0.851396  s :     0.851396
      pz      :     0.041189  p :     0.133421
      px      :     0.058545
      py      :     0.033687


                      *****************************
                      * MAYER POPULATION ANALYSIS *
                      *****************************

  NA   - Mulliken gross atomic population
  ZA   - Total nuclear charge
  QA   - Mulliken gross atomic charge
  VA   - Mayer's total valence
  BVA  - Mayer's bonded valence
  FA   - Mayer's free valence

  ATOM       NA         ZA         QA         VA         BVA        FA
  0 N      7.5497     7.0000    -0.5497     3.1549     2.8465     0.3084
  1 H      0.7943     1.0000     0.2057     0.9613     0.9119     0.0494
  2 H      0.8025     1.0000     0.1975     0.9725     0.9232     0.0493
  3 H      0.8007     1.0000     0.1993     0.9686     0.9192     0.0493
  4 N      7.5864     7.0000    -0.5864     3.0675     2.7586     0.3088
  5 H      0.8308     1.0000     0.1692     0.9792     0.9284     0.0508
  6 H      0.8043     1.0000     0.1957     1.0228     0.9743     0.0485
  7 H      0.8313     1.0000     0.1687     0.9795     0.9287     0.0508

  Mayer bond orders larger than 0.100000
B(  0-N ,  1-H ) :   0.9143 B(  0-N ,  2-H ) :   0.9214 B(  0-N ,  3-H ) :   0.9187 
B(  4-N ,  5-H ) :   0.9340 B(  4-N ,  6-H ) :   0.8893 B(  4-N ,  7-H ) :   0.9341 



----------------------------------
MP2 DERIVATIVE INTEGRAL GENERATION
----------------------------------

Input SCF Electron Density              ... /home/vivek/mm/lab5/6-311/nh3/dimer/dimer.scfp
Input Correlated Electron Density       ... /home/vivek/mm/lab5/6-311/nh3/dimer/dimer.pmp2re
Input Energy Weighted Density           ... /home/vivek/mm/lab5/6-311/nh3/dimer/dimer.wmp2.tmp
Input Wavefunction Amplitudes           ... /home/vivek/mm/lab5/6-311/nh3/dimer/dimer.mp2tsaa.tmp

Nuclear repulsion gradient              ... done (  0.0 sec)
HCore & Overlap gradient  (SHARK)       ... done (  0.0 sec)
Analytic two-electron gradient terms    ... 
  Batch handling in the gradient evaluation:
  General contraction                   ... not used
  Memory available                      ... 4092.9 MB
  Memory per occupied orbital in Q2     ...    0.3 MB
  Memory per occupied orbital in Q3     ...    0.0 MB
  Total memory requirement per |i>      ...    0.3 MB
  Number of orbitals treated per batch  ...      8
  Number of batches to be done          ...      1
done (  1.3 sec)

---------------------------------------
MP2 TOTAL ENERGY:     -112.822712321 Eh
---------------------------------------

The final MP2 gradient
  0:  -0.00081388   0.01315358  -0.00457230
  1:   0.00076695  -0.00059564   0.00486193
  2:   0.00298846  -0.00383477  -0.00103041
  3:  -0.00336164  -0.00318494  -0.00040725
  4:  -0.00206073   0.00950898   0.00271783
  5:  -0.00245480  -0.00173164  -0.00215478
  6:   0.00135811  -0.01261136   0.00042164
  7:   0.00357751  -0.00070421   0.00016333

-----------------------------------
NORM OF THE MP2 GRADIENT:  0.023571
-----------------------------------

Maximum memory used throughout the entire MP2-calculation: 21.6 MB

-------------------------   --------------------
FINAL SINGLE POINT ENERGY      -112.822712320640
-------------------------   --------------------

------------------------------------------------------------------------------
                         ORCA GEOMETRY RELAXATION STEP
------------------------------------------------------------------------------

Reading the OPT-File                    .... done
Getting information on internals        .... done
Copying old internal coords+grads       .... done
Making the new internal coordinates     .... (2022 redundants) done
Validating the new internal coordinates .... (2022 redundants) done
Calculating the B-matrix                .... done
Calculating the G,G- and P matrices     .... done
Transforming gradient to internals      .... done
Projecting the internal gradient        .... done
Number of atoms                         ....   8
Number of internal coordinates          ....  47
Current Energy                          ....  -112.822712321 Eh
Current gradient norm                   ....     0.023570879 Eh/bohr
Maximum allowed component of the step   ....  0.300
Current trust radius                    ....  0.300
Evaluating the initial hessian          ....  (Almloef) done
Projecting the Hessian                  .... done
Forming the augmented Hessian           .... done
Diagonalizing the augmented Hessian     .... done
Last element of RFO vector              ....  0.974814787
Lowest eigenvalues of augmented Hessian:
 -0.001217695  0.013482485  0.020351426  0.058487231  0.068720400
Length of the computed step             ....  0.228777804
The final length of the internal step   ....  0.228777804
Converting the step to Cartesian space:
 Initial RMS(Int)=    0.0333706725
Transforming coordinates:
 Iter   0:  RMS(Cart)=    0.0383697772 RMS(Int)=    0.0333907925
done
Storing new coordinates                 .... done

                                .--------------------.
          ----------------------|Geometry convergence|-------------------------
          Item                value                   Tolerance       Converged
          ---------------------------------------------------------------------
          RMS gradient        0.0019638346            0.0001000000      NO
          MAX gradient        0.0071646468            0.0003000000      NO
          RMS step            0.0333706725            0.0020000000      NO
          MAX step            0.1420780990            0.0040000000      NO
          -------------------------------------------------------------------------
          ........................................................
          Max(Bonds)      0.0752      Max(Angles)    1.16
          Max(Dihed)        0.83      Max(Improp)    0.00
          ---------------------------------------------------------------------

The optimization has not yet converged - more geometry cycles are needed


    ---------------------------------------------------------------------------
                         Redundant Internal Coordinates
                            (Angstroem and degrees)

        Definition                    Value    dE/dq     Step     New-Value
    ----------------------------------------------------------------------------
     1. B(H   1,N   0)                1.0224  0.004317 -0.0054    1.0171   
     2. B(H   2,N   0)                1.0209  0.004589 -0.0058    1.0151   
     3. B(H   3,N   0)                1.0214  0.004184 -0.0058    1.0156   
     4. B(H   5,N   4)                1.0186  0.002786 -0.0035    1.0151   
     5. B(H   6,N   0)                2.0044 -0.003697  0.0752    2.0796   
     6. B(H   6,N   4)                1.0329  0.007165 -0.0095    1.0234   
     7. B(H   6,H   3)                2.5656 -0.000181  0.0626    2.6282   
     8. B(H   6,H   1)                2.2885 -0.000814  0.0639    2.3524   
     9. B(H   7,N   4)                1.0187  0.002810 -0.0035    1.0151   
    10. A(H   1,N   0,H   3)          105.05 -0.000380    0.39    105.44   
    11. A(H   3,N   0,H   6)          111.81  0.000267   -0.25    111.56   
    12. A(H   2,N   0,H   6)          132.80  0.001041   -0.22    132.58   
    13. A(H   1,N   0,H   2)          105.23 -0.000547    0.13    105.36   
    14. A(H   2,N   0,H   3)          105.31 -0.000886    0.20    105.51   
    15. A(H   1,N   0,H   6)           92.44  0.000239   -0.05     92.39   
    16. A(N   0,H   1,H   6)           61.05 -0.001443    1.00     62.05   
    17. A(N   0,H   3,H   6)           46.50 -0.001102    0.90     47.40   
    18. A(H   6,N   4,H   7)          104.06 -0.003192    0.61    104.67   
    19. A(H   5,N   4,H   7)          105.65  0.002206   -0.42    105.23   
    20. A(H   5,N   4,H   6)          104.14 -0.003506    0.67    104.81   
    21. A(H   3,H   6,N   4)          160.64 -0.000739    0.73    161.36   
    22. A(N   0,H   6,H   1)           26.51  0.001203   -0.95     25.56   
    23. A(N   0,H   6,H   3)           21.69  0.000835   -0.65     21.05   
    24. A(H   1,H   6,N   4)          153.53 -0.000976    0.62    154.14   
    25. A(H   1,H   6,H   3)           38.51  0.001533   -1.16     37.35   
    26. D(H   6,H   1,N   0,H   2)    135.75  0.001053   -0.21    135.54   
    27. D(H   6,H   1,N   0,H   3)   -113.36 -0.000292    0.21   -113.14   
    28. D(H   6,H   3,N   0,H   1)     98.92  0.000189    0.04     98.95   
    29. D(H   6,H   3,N   0,H   2)   -150.26 -0.000914    0.42   -149.84   
    30. D(H   5,N   4,N   0,H   3)    -45.55 -0.000224    0.55    -45.00   
    31. D(H   5,N   4,N   0,H   2)     93.89  0.000045    0.27     94.16   
    32. D(H   7,N   4,N   0,H   2)    -16.22  0.000034    0.21    -16.01   
    33. D(H   5,N   4,N   0,H   1)   -152.98 -0.000013    0.24   -152.74   
    34. D(H   7,N   4,N   0,H   1)     96.91 -0.000024    0.18     97.09   
    35. D(H   7,N   4,N   0,H   3)   -155.66 -0.000235    0.50   -155.17   
    36. D(H   3,H   6,N   0,H   2)    139.30  0.000339   -0.41    138.89   
    37. D(H   3,H   6,N   0,H   1)   -107.27  0.000266   -0.37   -107.64   
    38. D(H   1,H   6,N   0,H   3)    107.27 -0.000266    0.37    107.64   
    39. D(N   4,H   6,H   1,N   0)   -174.38  0.000217    0.06   -174.31   
    40. D(H   1,H   6,N   0,H   2)   -113.43  0.000073   -0.04   -113.48   
    41. D(H   3,H   6,N   4,H   5)    -42.79  0.000327   -0.17    -42.96   
    42. D(H   1,H   6,N   4,H   7)     91.93 -0.000202    0.14     92.07   
    43. D(H   1,H   6,N   4,H   5)   -157.59 -0.000215    0.14   -157.45   
    44. D(H   1,H   6,H   3,N   0)    -43.20 -0.000534    0.52    -42.68   
    45. D(N   4,H   6,H   3,N   0)    177.34 -0.000720    0.83    178.17   
    46. D(H   3,H   6,N   4,H   7)   -153.26  0.000340   -0.17   -153.43   
    47. D(H   3,H   6,H   1,N   0)     34.53  0.000176   -0.19     34.34   
    ----------------------------------------------------------------------------

Geometry step timings:
Preparation and reading OPT file:      0.000 s ( 1.872 %)
Internal coordinates            :      0.000 s ( 2.418 %)
B/P matrices and projection     :      0.000 s (23.089 %)
Hessian update/contruction      :      0.000 s (13.339 %)
Making the step                 :      0.000 s (23.713 %)
Converting the step to Cartesian:      0.000 s ( 4.836 %)
Storing new data                :      0.000 s ( 2.574 %)
Checking convergence            :      0.000 s ( 2.964 %)
Final printing                  :      0.000 s (25.195 %)
Total time                      :      0.001 s

Time for energy+gradient        :      8.654 s
Time for complete geometry iter :      8.713 s

         *************************************************************
         *                GEOMETRY OPTIMIZATION CYCLE   2            *
         *************************************************************
---------------------------------
CARTESIAN COORDINATES (ANGSTROEM)
---------------------------------
  N     -3.348265   -0.386406   -0.092174
  H     -3.190269   -0.480878    0.907894
  H     -2.583517   -0.886997   -0.533697
  H     -4.180319   -0.934773   -0.287453
  N     -3.965040    2.643259    0.163460
  H     -4.581340    2.864082   -0.612313
  H     -3.790722    1.638148    0.081075
  H     -3.077662    3.077952   -0.069081

----------------------------
CARTESIAN COORDINATES (A.U.)
----------------------------
  NO LB      ZA    FRAG     MASS         X           Y           Z
   0 N     7.0000    0    14.007   -6.327305   -0.730202   -0.174183
   1 H     1.0000    0     1.008   -6.028736   -0.908728    1.715671
   2 H     1.0000    0     1.008   -4.882140   -1.676181   -1.008541
   3 H     1.0000    0     1.008   -7.899658   -1.766465   -0.543207
   4 N     7.0000    0    14.007   -7.492839    4.995036    0.308895
   5 H     1.0000    0     1.008   -8.657478    5.412331   -1.157103
   6 H     1.0000    0     1.008   -7.163426    3.095652    0.153210
   7 H     1.0000    0     1.008   -5.815939    5.816485   -0.130544

--------------------------------
INTERNAL COORDINATES (ANGSTROEM)
--------------------------------
 N      0   0   0     0.000000000000     0.00000000     0.00000000
 H      1   0   0     1.016869237381     0.00000000     0.00000000
 H      1   2   0     1.015073421957   105.36132266     0.00000000
 H      1   2   3     1.015457090944   105.44249620   111.31772419
 N      1   2   3     3.102359441241    92.32563379   225.27774577
 H      5   1   2     1.015092128494   105.67456508   207.25764241
 H      5   1   2     1.023436455130     1.66594208   266.00331329
 H      5   1   2     1.015121319476   103.03329333    97.08716755

---------------------------
INTERNAL COORDINATES (A.U.)
---------------------------
 N      0   0   0     0.000000000000     0.00000000     0.00000000
 H      1   0   0     1.921604372660     0.00000000     0.00000000
 H      1   2   0     1.918210773321   105.36132266     0.00000000
 H      1   2   3     1.918935802632   105.44249620   111.31772419
 N      1   2   3     5.862609712931    92.32563379   225.27774577
 H      5   1   2     1.918246123554   105.67456508   207.25764241
 H      5   1   2     1.934014615667     1.66594208   266.00331329
 H      5   1   2     1.918301286514   103.03329333    97.08716755

------------------------------------------------------------------------------
                   ___                                                        
                  /   \      - P O W E R E D   B Y -                         
                 /     \                                                     
                 |  |  |   _    _      __       _____    __    __             
                 |  |  |  | |  | |    /  \     |  _  \  |  |  /  |          
                  \  \/   | |  | |   /    \    | | | |  |  | /  /          
                 / \  \   | |__| |  /  /\  \   | |_| |  |  |/  /          
                |  |  |   |  __  | /  /__\  \  |    /   |      \           
                |  |  |   | |  | | |   __   |  |    \   |  |\   \          
                \     /   | |  | | |  |  |  |  | |\  \  |  | \   \       
                 \___/    |_|  |_| |__|  |__|  |_| \__\ |__|  \__/        
                                                                              
                      - O R C A' S   B I G   F R I E N D -                    
                                      &                                       
                       - I N T E G R A L  F E E D E R -                       
                                                                              
 v1 FN, 2020, v2 2021, v3 2022-2024                                           
------------------------------------------------------------------------------


----------------------
SHARK INTEGRAL PACKAGE
----------------------

Number of atoms                             ...      8
Number of basis functions                   ...     72
Number of shells                            ...     40
Maximum angular momentum                    ...      2
Integral batch strategy                     ... SHARK/LIBINT Hybrid
RI-J (if used) integral strategy            ... SPLIT-RIJ (Revised 2003 algorithm where possible)
Printlevel                                  ...      1
Contraction scheme used                     ... SEGMENTED contraction
Prescreening option                         ... SCHWARTZ
   Thresh                                   ... 2.500e-11
   Tcut                                     ... 2.500e-12
   Tpresel                                  ... 2.500e-12 
Coulomb Range Separation                    ... NOT USED
Exchange Range Separation                   ... NOT USED
Multipole approximations                    ... NOT USED
Finite Nucleus Model                        ... NOT USED
CABS basis                                  ... NOT available
Auxiliary Coulomb fitting basis             ... NOT available
Auxiliary J/K fitting basis                 ... NOT available
Auxiliary Correlation fitting basis         ... NOT available
Auxiliary 'external' fitting basis          ... NOT available

Checking pre-screening integrals            ... done (  0.0 sec) Dimension = 40
   => SHARK Basis and OBASIS are compatible. Storing Pre-screening
Shell pair information
Shell pair cut-off parameter TPreSel        ...   2.5e-12
Total number of shell pairs                 ...       820
Shell pairs after pre-screening             ...       783
Total number of primitive shell pairs       ...      2545
Primitive shell pairs kept                  ...      1974
          la=0 lb=0:    331 shell pairs
          la=1 lb=0:    296 shell pairs
          la=1 lb=1:     77 shell pairs
          la=2 lb=0:     52 shell pairs
          la=2 lb=1:     24 shell pairs
          la=2 lb=2:      3 shell pairs

Checking whether 4 symmetric matrices of dimension 72 fit in memory
:Max Core in MB      =   4096.00
 MB in use           =      2.18
 MB left             =   4093.82
 MB needed           =      0.08
 Data fit in memory  = YES
Calculating Nuclear repulsion               ... done (  0.0 sec) ENN=     40.599878251177 Eh

Diagonalization of the overlap matrix:
Smallest eigenvalue                        ... 7.770e-03
Time for diagonalization                   ...    0.001 sec
Threshold for overlap eigenvalues          ... 1.000e-07
Number of eigenvalues below threshold      ... 0
Time for construction of square roots      ...    0.000 sec
Total time needed                          ...    0.002 sec

-------------------
DFT GRID GENERATION
-------------------

General Integration Accuracy     IntAcc      ... 4.388
Radial Grid Type                 RadialGrid  ... OptM3 with GC (2021)
Angular Grid (max. ang.)         AngularGrid ... 4 (Lebedev-302)
Angular grid pruning method      GridPruning ... 4 (adaptive)
Weight generation scheme         WeightScheme... mBecke (2022)
Basis function cutoff            BFCut       ... 1.0000e-11
Integration weight cutoff        WCut        ... 1.0000e-14
Partially contracted basis set               ... off
Rotationally invariant grid construction     ... off
Angular grids for H and He will be reduced by one unit

Total number of grid points                  ...    31884
Total number of batches                      ...      503
Average number of points per batch           ...       63
Average number of grid points per atom       ...     3986
Grids setup in   0.3 sec
Initializing property integral containers    ... done (  0.0 sec)

SHARK setup successfully completed in   0.4 seconds

Maximum memory used throughout the entire STARTUP-calculation: 11.9 MB
Occupation numbers will be reassigned to an Aufbau configuration
             **** ENERGY FILE WAS UPDATED (/home/vivek/mm/lab5/6-311/nh3/dimer/dimer.en.tmp) ****
Finished Guess after   0.1 sec
Maximum memory used throughout the entire GUESS-calculation: 4.7 MB
----------------------------------------D-I-I-S--------------------------------------------
Iteration    Energy (Eh)           Delta-E    RMSDP     MaxDP     DIISErr   Damp  Time(sec)
-------------------------------------------------------------------------------------------
               ***  Starting incremental Fock matrix formation  ***
    1    -112.4221907107563254     0.00e+00  8.10e-05  1.41e-03  5.67e-03  0.700   0.3
    2    -112.4222297274436642    -3.90e-05  7.28e-05  1.31e-03  4.36e-03  0.700   0.1
                               ***Turning on AO-DIIS***
                              *** Initializing SOSCF ***
---------------------------------------S-O-S-C-F--------------------------------------
Iteration    Energy (Eh)           Delta-E    RMSDP     MaxDP     MaxGrad    Time(sec)
--------------------------------------------------------------------------------------
    3    -112.4222593244827237    -2.96e-05  2.15e-04  3.75e-03  3.27e-03     0.1
               *** Restarting incremental Fock matrix formation ***
    4    -112.4223402046968374    -8.09e-05  4.92e-05  8.87e-04  2.34e-04     0.2
    5    -112.4223420648997092    -1.86e-06  3.49e-05  5.35e-04  1.06e-04     0.1
    6    -112.4223424295784639    -3.65e-07  4.51e-06  5.81e-05  4.63e-05     0.1
    7    -112.4223424561453442    -2.66e-08  1.54e-06  1.87e-05  8.93e-06     0.1
    8    -112.4223424581759048    -2.03e-09  5.50e-07  6.29e-06  2.63e-06     0.1
                 **** Energy Check signals convergence ****

               *****************************************************
               *                     SUCCESS                       *
               *           SCF CONVERGED AFTER   8 CYCLES          *
               *****************************************************

             **** ENERGY FILE WAS UPDATED (/home/vivek/mm/lab5/6-311/nh3/dimer/dimer.en.tmp) ****

----------------
TOTAL SCF ENERGY
----------------

Total Energy       :       -112.42234245842894 Eh           -3059.16746 eV

Components:
Nuclear Repulsion  :         40.59987825117665 Eh            1104.77885 eV
Electronic Energy  :       -153.02222070960559 Eh           -4163.94632 eV
One Electron Energy:       -232.84374183603353 Eh           -6336.00033 eV
Two Electron Energy:         79.82152112642794 Eh            2172.05401 eV

Virial components:
Potential Energy   :       -224.79528861958966 Eh           -6116.99079 eV
Kinetic Energy     :        112.37294616116071 Eh            3057.82332 eV
Virial Ratio       :          2.00043957463923

---------------
SCF CONVERGENCE
---------------

  Last Energy change         ...    2.0306e-09  Tolerance :   1.0000e-08
  Last MAX-Density change    ...    6.2911e-06  Tolerance :   1.0000e-07
[...]
------------

These modes are the Cartesian displacements weighted by the diagonal matrix
M(i,i)=1/sqrt(m[i]) where m[i] is the mass of the displaced atom
Thus, these vectors are normalized but *not* orthogonal

                  0          1          2          3          4          5    
      0       0.000000   0.000000   0.000000   0.000000   0.000000   0.000000
      1       0.000000   0.000000   0.000000   0.000000   0.000000   0.000000
      2       0.000000   0.000000   0.000000   0.000000   0.000000   0.000000
      3       0.000000   0.000000   0.000000   0.000000   0.000000   0.000000
      4       0.000000   0.000000   0.000000   0.000000   0.000000   0.000000
      5       0.000000   0.000000   0.000000   0.000000   0.000000   0.000000
      6       0.000000   0.000000   0.000000   0.000000   0.000000   0.000000
      7       0.000000   0.000000   0.000000   0.000000   0.000000   0.000000
      8       0.000000   0.000000   0.000000   0.000000   0.000000   0.000000
      9       0.000000   0.000000   0.000000   0.000000   0.000000   0.000000
     10       0.000000   0.000000   0.000000   0.000000   0.000000   0.000000
     11       0.000000   0.000000   0.000000   0.000000   0.000000   0.000000
     12       0.000000   0.000000   0.000000   0.000000   0.000000   0.000000
     13       0.000000   0.000000   0.000000   0.000000   0.000000   0.000000
     14       0.000000   0.000000   0.000000   0.000000   0.000000   0.000000
     15       0.000000   0.000000   0.000000   0.000000   0.000000   0.000000
     16       0.000000   0.000000   0.000000   0.000000   0.000000   0.000000
     17       0.000000   0.000000   0.000000   0.000000   0.000000   0.000000
     18       0.000000   0.000000   0.000000   0.000000   0.000000   0.000000
     19       0.000000   0.000000   0.000000   0.000000   0.000000   0.000000
     20       0.000000   0.000000   0.000000   0.000000   0.000000   0.000000
     21       0.000000   0.000000   0.000000   0.000000   0.000000   0.000000
     22       0.000000   0.000000   0.000000   0.000000   0.000000   0.000000
     23       0.000000   0.000000   0.000000   0.000000   0.000000   0.000000
                  6          7          8          9         10         11    
      0      -0.013012   0.016028   0.042814   0.065247   0.061794   0.015716
      1      -0.001719   0.009177   0.010022  -0.347908   0.010391   0.010907
      2      -0.020978  -0.050394   0.008479  -0.026722   0.019770  -0.054012
      3      -0.376521  -0.012998  -0.168846   0.033261  -0.065937  -0.076860
      4       0.206298   0.606294  -0.230488  -0.208175  -0.193419   0.316219
      5       0.080887   0.069186  -0.001726   0.004778   0.002110   0.021825
      6       0.236037  -0.059628  -0.126968   0.061693  -0.061477   0.014836
      7       0.012785  -0.468732  -0.403192  -0.461896  -0.245302  -0.249108
      8       0.365648   0.172177   0.034399   0.050175   0.007048   0.131586
      9       0.171916  -0.100990  -0.277245   0.047380  -0.155967  -0.030379
     10      -0.158528  -0.007963   0.524370  -0.355166   0.366026   0.007183
     11      -0.228679   0.328611  -0.149404   0.043054  -0.101406   0.087591
     12       0.044239  -0.011806  -0.002823  -0.062961  -0.017021  -0.014186
     13      -0.004990  -0.040940  -0.004542   0.348789  -0.002405   0.037674
     14       0.016815   0.010511   0.000050   0.016191  -0.005614   0.029055
     15      -0.361295   0.056787  -0.135953  -0.055647  -0.034260   0.133767
     16       0.002045   0.180931  -0.305333   0.325492   0.451343  -0.339314
     17       0.395891   0.026167   0.016108   0.001388   0.173045  -0.248354
     18       0.005353   0.071974   0.341612  -0.059203  -0.481859  -0.179624
     19       0.003772   0.015419   0.047783   0.347756  -0.066305  -0.061338
     20      -0.111846  -0.333243   0.065960   0.033719  -0.153575   0.607710
     21      -0.109412  -0.013814  -0.188310  -0.059240   0.177352   0.116996
     22       0.026852   0.115415   0.290717   0.339744  -0.423314  -0.348727
     23      -0.444055   0.291311  -0.083850   0.013217  -0.123934  -0.253558
                 12         13         14         15         16         17    
      0       0.018228  -0.001895  -0.021405   0.060723  -0.010714   0.001522
      1      -0.112096  -0.000560  -0.014113   0.005077  -0.004982  -0.000391
      2       0.020527   0.007161  -0.056623  -0.025071  -0.017873  -0.002986
      3      -0.059334   0.008707   0.186790  -0.715612   0.097065   0.018309
      4       0.559996  -0.031831  -0.226959  -0.167995  -0.088330  -0.025936
      5       0.110245  -0.001637  -0.111960   0.080280  -0.045573  -0.009841
      6       0.083225  -0.005472   0.423562  -0.045315   0.156580   0.030197
      7       0.520094   0.025603   0.227001   0.193963   0.084556   0.003395
      8      -0.225649  -0.019346   0.492031  -0.285885   0.186635   0.041909
      9      -0.274978   0.006310  -0.312609  -0.084548  -0.110619  -0.031714
     10       0.472842  -0.001374   0.195253  -0.098056   0.075449   0.034574
     11      -0.172727  -0.016113   0.405156   0.556306   0.125923   0.021313
     12      -0.000146  -0.033837  -0.003374   0.000475  -0.004617   0.061652
     13       0.000797   0.019880  -0.021927   0.002310   0.057327   0.007988
     14       0.000003   0.102756   0.004978  -0.000107  -0.015286   0.018758
     15       0.000035   0.337013   0.132606  -0.012633  -0.358375   0.015610
     16      -0.002445  -0.151611   0.212710  -0.021598  -0.484714  -0.403713
     17      -0.001367  -0.380220  -0.042502   0.003531   0.136778  -0.117482
     18      -0.001430   0.174362   0.027246  -0.002981   0.089377  -0.752968
     19      -0.001922   0.091554  -0.024680   0.002409   0.089935  -0.105368
     20       0.004653  -0.619972   0.111402  -0.015103  -0.286336  -0.226239
     21       0.001230  -0.024402  -0.113272   0.010690   0.339013  -0.157280
     22      -0.001972  -0.200812   0.117479  -0.011371  -0.404275   0.391476
     23      -0.000430  -0.490094  -0.136475   0.010729   0.343353   0.071167
                 18         19         20         21         22         23    
      0      -0.000467   0.006010   0.000328   0.001019   0.044708  -0.064311
      1       0.004005  -0.037108  -0.001206   0.000108   0.018898  -0.001712
      2      -0.001351   0.007051  -0.000647   0.000122   0.062711   0.046433
      3       0.009940  -0.090909  -0.001614  -0.000380  -0.108308  -0.080444
      4      -0.006154   0.065051   0.000965   0.000292   0.128628   0.065812
      5       0.063076  -0.564450  -0.010680  -0.003378  -0.696099  -0.369054
      6       0.045932  -0.458858  -0.020012  -0.006385   0.033688   0.644935
      7      -0.018742   0.164344   0.006382   0.002573  -0.004846  -0.283249
      8      -0.029626   0.300523   0.013086   0.004312   0.001114  -0.407667
      9      -0.048499   0.466030   0.017202  -0.006737  -0.546994   0.329520
     10      -0.031272   0.288050   0.009904  -0.004297  -0.386042   0.241749
     11      -0.017236   0.165488   0.005993  -0.002410  -0.177086   0.131008
     12      -0.013198  -0.001242  -0.000647  -0.074489   0.000528  -0.000673
     13       0.027983   0.000642   0.071891  -0.009950   0.000647   0.000491
     14       0.029828   0.004120  -0.028936  -0.022892   0.000022  -0.000334
     15      -0.324195  -0.046221   0.370173   0.466899  -0.001889   0.005684
     16       0.128087   0.017805  -0.128274  -0.191837   0.001381  -0.002159
     17      -0.291543  -0.043057   0.366800   0.498593  -0.002119   0.006056
     18       0.116779   0.009072   0.110829  -0.021842   0.002023   0.000123
     19      -0.744891  -0.059410  -0.622965  -0.004991  -0.006700  -0.007587
     20      -0.043464  -0.001935  -0.080164  -0.007095   0.000466   0.000087
     21       0.389925   0.054628  -0.472147   0.589370  -0.007114   0.003186
     22       0.228471   0.030889  -0.248242   0.335027  -0.004022   0.002407
     23      -0.076927  -0.011790   0.116041  -0.173601   0.001988  -0.001011


-----------
IR SPECTRUM
-----------

 Mode   freq       eps      Int      T**2         TX        TY        TZ
       cm**-1   L/(mol*cm) km/mol    a.u.
----------------------------------------------------------------------------
  7:     74.12   0.012942   65.41  0.054492  (-0.019977  0.156205  0.172317)
  8:    119.99   0.007137   36.07  0.018561  (-0.131686 -0.021234 -0.027740)
  9:    143.54   0.000353    1.79  0.000768  (-0.006682  0.021768  0.015811)
 10:    290.44   0.010721   54.18  0.011519  (-0.101180 -0.016672 -0.031678)
 11:    378.52   0.013144   66.42  0.010836  (-0.001934 -0.094079  0.044513)
 12:   1127.12   0.030352  153.39  0.008404  (-0.014192  0.088718 -0.018203)
 13:   1179.19   0.029931  151.26  0.007921  ( 0.027685 -0.020552 -0.082049)
 14:   1666.30   0.003561   18.00  0.000667  ( 0.010081  0.011800  0.020642)
 15:   1671.62   0.003892   19.67  0.000727  (-0.024755 -0.003183  0.010183)
 16:   1678.88   0.002833   14.32  0.000527  ( 0.005348 -0.017835  0.013412)
 17:   1717.45   0.002353   11.89  0.000427  (-0.020143 -0.001343 -0.004467)
 18:   3485.66   0.015561   78.64  0.001393  ( 0.004953 -0.036890  0.002792)
 19:   3525.90   0.000010    0.05  0.000001  ( 0.000129 -0.000910 -0.000251)
 20:   3620.77   0.008925   45.10  0.000769  ( 0.005122 -0.027159 -0.002319)
 21:   3657.95   0.000104    0.53  0.000009  (-0.002870 -0.000346 -0.000742)
 22:   3668.61   0.000692    3.50  0.000059  (-0.004133 -0.001626 -0.006253)
 23:   3669.92   0.000611    3.09  0.000052  ( 0.005657  0.000194 -0.004465)

* The epsilon (eps) is given for a Dirac delta lineshape.
** The dipole moment derivative (T) already includes vibrational overlap.

The first frequency considered to be a vibration is 7
The total number of vibrations considered is 17


--------------------------
THERMOCHEMISTRY AT 298.15K
--------------------------

Temperature         ...   298.15 K
Pressure            ...     1.00 atm
Total Mass          ...    34.06 AMU
Quasi RRHO          ...     True
Cut-Off Frequency   ...     1.00 cm^-1

Throughout the following assumptions are being made:
  (1) The electronic state is orbitally nondegenerate
  (2) There are no thermally accessible electronically excited states
  (3) Hindered rotations indicated by low frequency modes are not
      treated as such but are treated as vibrations and this may
      cause some error
  (4) All equations used are the standard statistical mechanics
      equations for an ideal gas
  (5) All vibrations are strictly harmonic

freq.      74.12  E(vib)   ...       0.49 
freq.     119.99  E(vib)   ...       0.44 
freq.     143.54  E(vib)   ...       0.41 
freq.     290.44  E(vib)   ...       0.27 
freq.     378.52  E(vib)   ...       0.21 
freq.    1127.12  E(vib)   ...       0.01 
freq.    1179.19  E(vib)   ...       0.01 
freq.    1666.30  E(vib)   ...       0.00 
freq.    1671.62  E(vib)   ...       0.00 
freq.    1678.88  E(vib)   ...       0.00 
freq.    1717.45  E(vib)   ...       0.00 
freq.    3485.66  E(vib)   ...       0.00 
freq.    3525.90  E(vib)   ...       0.00 
freq.    3620.77  E(vib)   ...       0.00 
freq.    3657.95  E(vib)   ...       0.00 
freq.    3668.61  E(vib)   ...       0.00 
freq.    3669.92  E(vib)   ...       0.00 

------------
INNER ENERGY
------------

The inner energy is: U= E(el) + E(ZPE) + E(vib) + E(rot) + E(trans)
    E(el)   - is the total energy from the electronic structure calculation
              = E(kin-el) + E(nuc-el) + E(el-el) + E(nuc-nuc)
    E(ZPE)  - the the zero temperature vibrational energy from the frequency calculation
    E(vib)  - the the finite temperature correction to E(ZPE) due to population
              of excited vibrational states
    E(rot)  - is the rotational thermal energy
    E(trans)- is the translational thermal energy

Summary of contributions to the inner energy U:
Electronic energy                ...   -112.82457162 Eh
Zero point energy                ...      0.07216315 Eh      45.28 kcal/mol
Thermal vibrational correction   ...      0.00295002 Eh       1.85 kcal/mol
Thermal rotational correction    ...      0.00141627 Eh       0.89 kcal/mol
Thermal translational correction ...      0.00141627 Eh       0.89 kcal/mol
-----------------------------------------------------------------------
Total thermal energy                   -112.74662590 Eh


Summary of corrections to the electronic energy:
(perhaps to be used in another calculation)
Total thermal correction                  0.00578257 Eh       3.63 kcal/mol
Non-thermal (ZPE) correction              0.07216315 Eh      45.28 kcal/mol
-----------------------------------------------------------------------
Total correction                          0.07794572 Eh      48.91 kcal/mol


--------
ENTHALPY
--------

The enthalpy is H = U + kB*T
                kB is Boltzmann's constant
Total thermal energy              ...   -112.74662590 Eh 
Thermal Enthalpy correction       ...      0.00094421 Eh       0.59 kcal/mol
-----------------------------------------------------------------------
Total Enthalpy                    ...   -112.74568170 Eh


Note: Only C1 symmetry has been detected, increase convergence thresholds 
      if your molecule has a higher symmetry. Symmetry factor of 1.0 is   
      used for the rotational entropy correction. 
 

Note: Rotational entropy computed according to Herzberg 
Infrared and Raman Spectra, Chapter V,1, Van Nostrand Reinhold, 1945 
Point Group:  C1, Symmetry Number:   1  
Rotational constants in cm-1:     3.822904     0.176426     0.174838 

Vibrational entropy computed according to the QRRHO of S. Grimme
Chem.Eur.J. 2012 18 9955 using a reference frequency of 100.0 cm-1


-------
ENTROPY
-------

The entropy contributions are T*S = T*(S(el)+S(vib)+S(rot)+S(trans))
     S(el)   - electronic entropy
     S(vib)  - vibrational entropy
     S(rot)  - rotational entropy
     S(trans)- translational entropy
The entropies will be listed as multiplied by the temperature to get
units of energy

Electronic entropy                ...      0.00000000 Eh      0.00 kcal/mol
Vibrational entropy               ...      0.00554446 Eh      3.48 kcal/mol
Rotational entropy                ...      0.01052002 Eh      6.60 kcal/mol
Translational entropy             ...      0.01734594 Eh     10.88 kcal/mol
-----------------------------------------------------------------------
Final entropy term                ...      0.03341041 Eh     20.97 kcal/mol

In case the symmetry of your molecule has not been determined correctly
or in case you have a reason to use a different symmetry number we print 
out the resulting rotational entropy values for sn=1,12:

 non-linear molecules -----------------------------------
|  sn= 1 | S(rot)=       0.01052002 Eh      6.60 kcal/mol|
|  sn= 2 | S(rot)=       0.00986556 Eh      6.19 kcal/mol|
|  sn= 3 | S(rot)=       0.00948273 Eh      5.95 kcal/mol|
|  sn= 4 | S(rot)=       0.00921111 Eh      5.78 kcal/mol|
|  sn= 5 | S(rot)=       0.00900042 Eh      5.65 kcal/mol|
|  sn= 6 | S(rot)=       0.00882827 Eh      5.54 kcal/mol|
|  sn= 7 | S(rot)=       0.00868273 Eh      5.45 kcal/mol|
|  sn= 8 | S(rot)=       0.00855665 Eh      5.37 kcal/mol|
|  sn= 9 | S(rot)=       0.00844544 Eh      5.30 kcal/mol|
|  sn=10 | S(rot)=       0.00834596 Eh      5.24 kcal/mol|
|  sn=11 | S(rot)=       0.00825597 Eh      5.18 kcal/mol|
|  sn=12 | S(rot)=       0.00817382 Eh      5.13 kcal/mol|
 linear molecules ---------------------------------------
|  Dinfh | S(rot)=       0.00697236 Eh      4.38 kcal/mol|
|  Cinfv | S(rot)=       0.00762682 Eh      4.79 kcal/mol|
 --------------------------------------------------------


-------------------
GIBBS FREE ENERGY
-------------------

The Gibbs free energy is G = H - T*S

Total enthalpy                    ...   -112.74568170 Eh 
Total entropy correction          ...     -0.03341041 Eh    -20.97 kcal/mol
-----------------------------------------------------------------------
Final Gibbs free energy         ...   -112.77909210 Eh

For completeness - the Gibbs free energy minus the electronic energy
G-E(el)                           ...      0.04547952 Eh     28.54 kcal/mol



--------------------------------
SUGGESTED CITATIONS FOR THIS RUN
--------------------------------

Below you find a list of papers that are relevant to this ORCA run
We neither can nor want to force you to cite these papers, but we appreciate if you do
You receive ORCA, which is the product of decades of hard work by many enthusiastic individuals, for free
The only thing we kindly ask in return is that you cite our papers,
We deeply appreciate it, if you show your appreciation for ORCA by not just citing the generic ORCA reference.

Please note that relegating all ORCA citations to the supporting information does *not* help us.
SI sections are not indexed - citations you put there will not count into any citation statistics
But we need these citations in order to attract the funding resources that allow us to do what we are doing

Therefore, if you are a happy ORCA user, please consider citing a few of the papers listed below in the main body of your paper

In addition to the list printed below, the program has created the file /home/vivek/mm/lab5/6-311/nh3/dimer/dimer.bibtex that contains the list in bibtex format
You can import this file easily into all common literature databanks and citation aid programs


List of essential papers. We consider these as the minimum necessary citations

  1. Neese, F.
     Software update: the ORCA program system, version 6.0
     WIRES Comput. Molec. Sci. 2025 15(1), e70019
     doi.org/10.1002/wcms.7019

List of papers to cite with high priority. The work reported in these papers was absolutely
necessary for this run to complete.
Our perspective: the developers of density functionals and basis sets usually get cited in chemistry papers
Good! But without the algorithms to do something with them, the functionals or basis sets would not do anything.
Hence, in our opinion, the algorithm design and method developments papers are equally worthy of getting cited

  1. Neese, F.
     The SHARK Integral Generation and Digestion System
     J. Comp. Chem. 2022 44(3), 381
     doi.org/10.1002/jcc.26942

List of suggested additional citations. These are papers that are important in the 'surrounding' of 
of this run, or papers that preceded the highly important papers. If you like your results we are grateful for a citation.

  1. Neese, F.
     The ORCA program system
     WIRES Comput. Molec. Sci. 2012 2(1), 73-78
     doi.org/10.1002/wcms.81
  2. Neese, F.
     Software update: the ORCA program system, version 4.0
     WIRES Comput. Molec. Sci. 2018 8(1), 1-6
     doi.org/10.1002/wcms.1327
  3. Neese, F.; Wennmohs, F.; Becker, U.; Riplinger, C.
     The ORCA quantum chemistry program package
     J. Chem. Phys. 2020 152(22), 224108
     doi.org/10.1063/5.0004608
  4. Neese, F.
     Software update: The ORCA program system—Version 5.0
     WIRES Comput. Molec. Sci. 2022 12(1), e1606
     doi.org/10.1002/wcms.1606

List of optional additional citations

  1. Neese, F.
     Approximate second-order SCF convergence for spin unrestricted wavefunctions
     Chem. Phys. Lett. 2000 325(1-3), 93-98
     doi.org/10.1016/s0009-2614(00)00662-x

Timings for individual modules:

Sum of individual times          ...     1103.843 sec (=  18.397 min)
Startup calculation              ...       14.695 sec (=   0.245 min)   1.3 %
SCF iterations                   ...      136.834 sec (=   2.281 min)  12.4 %
Property calculations            ...        0.154 sec (=   0.003 min)   0.0 %
MP2 module                       ...      147.558 sec (=   2.459 min)  13.4 %
Geometry relaxation              ...       11.934 sec (=   0.199 min)   1.1 %
Numerical frequency calculation  ...      792.667 sec (=  13.211 min)  71.8 %
                             ****ORCA TERMINATED NORMALLY****
TOTAL RUN TIME: 0 days 0 hours 18 minutes 49 seconds 283 msec
