
                                 *****************
                                 * O   R   C   A *
                                 *****************

                                            #,                                       
                                            ###                                      
                                            ####                                     
                                            #####                                    
                                            ######                                   
                                           ########,                                 
                                     ,,################,,,,,                         
                               ,,#################################,,                 
                          ,,##########################################,,             
                       ,#########################################, ''#####,          
                    ,#############################################,,   '####,        
                  ,##################################################,,,,####,       
                ,###########''''           ''''###############################       
              ,#####''   ,,,,##########,,,,          '''####'''          '####       
            ,##' ,,,,###########################,,,                        '##       
           ' ,,###''''                  '''############,,,                           
         ,,##''                                '''############,,,,        ,,,,,,###''
      ,#''                                            '''#######################'''  
     '                                                          ''''####''''         
             ,#######,   #######,   ,#######,      ##                                
            ,#'     '#,  ##    ##  ,#'     '#,    #''#        ,####,    ,#,          
            ##       ##  ##   ,#'  ##            #'  '#       #'       ,# #          
            ##       ##  #######   ##           ,######,      #####,      #          
            '#,     ,#'  ##    ##  '#,     ,#' ,#      #,     #,   #      #          
             '#######'   ##     ##  '#######'  #'      '#     '####' #    #          



                #########################################################
                #                        -***-                          #
                #          Department of theory and spectroscopy        #
                #                                                       #
                #                      Frank Neese                      #
                #                                                       #
                #     Directorship, Architecture, Infrastructure        #
                #                    SHARK, DRIVERS                     #
                #        Core code/Algorithms in most modules           #
                #                                                       #
                #        Max Planck Institute fuer Kohlenforschung      #
                #                Kaiser Wilhelm Platz 1                 #
                #                 D-45470 Muelheim/Ruhr                 #
                #                      Germany                          #
                #                                                       #
                #                  All rights reserved                  #
                #                        -***-                          #
                #########################################################


                         Program Version 6.1.0  -  RELEASE   -
                                (GIT: $679e74b$)
                          ($2025-06-10 18:02:51 +0200$)


 With contributions from (in alphabetic order):
[Max-Planck-Institut fuer Kohlenforschung]                               
  Daniel Aravena         : Magnetic Suceptibility                        
  Michael Atanasov       : Ab Initio Ligand Field Theory (pilot matlab implementation)
  Alexander A. Auer      : GIAO ZORA, VPT2 properties, NMR spectrum      
  Ute Becker             : All parallelization in ORCA, NUMFREQ, NUMCALC 
  Giovanni Bistoni       : ED, misc. LED, open-shell LED, HFLD           
  Dmytro Bykov           : pre 5.0 version of the SCF Hessian            
  Marcos Casanova-Páez   : Triplet and SCS-CIS(D). UHF-(DLPNO)-IP/EA/STEOM-CCSD. UHF-CVS-IP/STEOM-CCSD   
  Vijay G. Chilkuri      : MRCI spin determinant printing, contributions to CSF-ICE 
  Pauline Colinet        : FMM embedding                                 
  Dipayan Datta          : RHF DLPNO-CCSD density                        
  Achintya Kumar Dutta   : EOM-CC, STEOM-CC                              
  Nicolas Foglia         : Exact transition moments, OPA infrastructure, MCD improvements    
  Dmitry Ganyushin       : Spin-Orbit,Spin-Spin,Magnetic field MRCI      
  Miquel Garcia-Rates    : C-PCM and meta-GGA Hessian, CCSD/C-PCM, Gaussian charge scheme 
  Tiago L. C. Gouveia    : GS-ROHF, GS-ROCIS                             
  Yang Guo               : DLPNO-NEVPT2, F12-NEVPT2, CIM, IAO-localization        
  Andreas Hansen         : Spin unrestricted coupled pair/coupled cluster methods 
  Ingolf Harden          : AUTO-CI MPn and infrastructure                
  Benjamin Helmich-Paris : MC-RPA, TRAH-(SCF,CASSCF), AVAS, COSX integrals, SCF dyn. polar., MC-PDFT, srDFT 
  Lee Huntington         : MR-EOM, pCC                                   
  Robert Izsak           : Overlap fitted RIJCOSX, COSX-SCS-MP3, EOM     
  Riya Kayal             : Wick's Theorem for AUTO-CI, AUTO-CI UHF-CCSDT 
  Emily Kempfer          : AUTO-CI RHF CISDT and CCSDT, approximate NEVPT4
  Christian Kollmar      : KDIIS, OOCD, Brueckner-CCSD(T), CCSD density, CASPT2, CASPT2-K, improved NEVPT2 
  Axel Koslowski         : Symmetry handling                             
  Simone Kossmann        : meta-GGA functionals, TD-DFT gradient, OOMP2, (MP2 Hessian; deprecated post 5.0) 
  Lucas Lang             : DCDCAS, Hyperfine gauge corrections, ICE-SOC+SSC
  Marvin Lechner         : AUTO-CI (C++ implementation), FIC-MRCC        
  Spencer Leger          : CASSCF response                               
  Dagmar Lenk            : GEPOL surface, SMD, ORCA-2-JSON               
  Dimitrios Liakos       : Extrapolation schemes; Compound Job, Property file
  Dimitrios Manganas     : Further ROCIS development; embedding schemes. LFT, Crystal Embedding 
  Dimitrios Pantazis     : SARC Basis sets                               
  Anastasios Papadopoulos: AUTO-CI, single reference methods and gradients 
  Taras Petrenko         : pre 6.0 DFT Hessian and TD-DFT gradient,  ECA, NRVS 
  Petra Pikulova         : Analytic Raman intensities                    
  Peter Pinski           : DLPNO-MP2, DLPNO-MP2 Gradient                 
  Shashank Vittal Rao    : ES-AILFT, MagRelax                            
  Christoph Reimann      : Effective Core Potentials                     
  Marius Retegan         : Local ZFS, SOC                                
  Christoph Riplinger    : Optimizer, TS searches, QM/MM, DLPNO-CCSD(T), (RO)-DLPNO pert. Triples 
  Michael Roemelt        : Original ROCIS implementation, recursive CI coupling coefficients
  Masaaki Saitow         : Open-shell DLPNO-CCSD energy and density      
  Barbara Sandhoefer     : DKH picture change effects                    
  Yorick L. A. Schmerwitz: GMF and freeze-and-release deltaSCF, NEB S-IDPP initial path                    
  Kantharuban Sivalingam : CASSCF convergence/infrastructure, NEVPT2, NEVPT3, NEVPT4(SD), FIC-MRCI and CEPA variants
  Bernardo de Souza      : ESD, SOC TD-DFT                               
  Georgi L. Stoychev     : AutoAux, RI-MP2 NMR, DLPNO-MP2 response, X2C  
  Van Anh Tran           : RI-MP2 g-tensors                              
  Willem Van den Heuvel  : Paramagnetic NMR                              
  Zikuan Wang            : NOTCH, Electric field optimization            
  Frank Wennmohs         : Technical directorship and infrastructure     
  Hang Xu                : AUTO-CI-Response properties                   
                                                                         
[FACCTs GmbH]                                                            
  Markus Bursch, Nicolas Foglia, Miquel Garcia-Rates, Ingolf Harden, Hagen Neugebauer, Anastasios Papadopoulos, 
  Christoph Riplinger, Bernardo de Souza, Georgi L. Stoychev                                                    
                                                                 
  APM, various basis sets, CI-OPT, improved COSX, DLPNO-Multilevel,           
  DOCKER, DRACO, updates on ESD, Fragmentator, GOAT, IRC, LR-CPCM, L-BFGS, MBIS, meta-GGA TD-DFT gradient, ML-optimized integration grids, 
  MM, NACMEs, nearIR, NEB, NEB-TS, NL-DFT gradient (VV10), 2- and 3-layer-ONIOM, interface openCOSMO-RS, QMMM,   
  Crystal-QMMM, RESP, rigid body optimization, SF, symmetry and pop. for TD-DFT, various functionals, SOLVATOR                                   
                                                                         
[Other institutions]                                                     
  V. Asgeirsson          : NEB                                           
  Christoph Bannwarth    : sTDA-DFT, sTD-DFT, PBEh-3c, B97-3c, D3        
  Giovanni Bistoni       : ETS/NOCV, ADLD/ADEX, COVALED                  
  Martin Brehm           : Molecular dynamics                            
  Ronald Cardenas        : ETS/NOCV                                      
  Martina Colucci        : COVALED                                       
  Sebastian Ehlert       : rSCAN, r2SCAN, r2SCAN-3c, D4, dhf basis sets  
  Marvin Friede          : D4 for Fr, Ra, Ac-Lr                          
  Lars Goerigk           : TD-DFT with DH, B97 family of functionals     
  Stefan Grimme          : VdW corrections, initial TS optimization, DFT functionals, gCP, sTDA/sTD-DF 
  Waldemar Hujo          : DFT-NL                                        
  H. Jonsson             : NEB                                           
  Holger Kruse           : gCP                                           
  Marcel Mueller         : wB97X-3c, vDZP basis set                      
  Hagen Neugebauer       : wr2SCAN, Native XTB                           
  Gianluca Regni         : ADLD/ADEX                                     
  Tobias Risthaus        : pre 6.0 range-separated hybrid DFT and stability analysis
  Lukas Wittmann         : regularized MP2, r2SCAN double-hybrids, wr2SCAN        
                                                                         
We gratefully acknowledge several colleagues who have allowed us to      
interface, adapt or use parts of their codes:                            
  Ed Valeev, F. Pavosevic, A. Kumar             : LibInt (2-el integral package), F12 methods 
  Garnet Chan, S. Sharma, J. Yang, R. Olivares  : DMRG                   
  Ulf Ekstrom                                   : XCFun DFT Library      
  Mihaly Kallay                                 : mrcc  (arbitrary order and MRCC methods)
  Frank Weinhold                                : gennbo (NPA and NBO analysis)           
  Simon Mueller                                 : openCOSMO-RS                            
  Christopher J. Cramer and Donald G. Truhlar   : smd solvation model                     
  S Lehtola, MJT Oliveira, MAL Marques          : LibXC Library                           
  Liviu Ungur et al                             : ANISO software                          


 Your calculation uses the libint2 library for the computation of 2-el integrals
 For citations please refer to: http://libint.valeyev.net

 Your ORCA version has been built with support for libXC version: 7.0.0
 For citations please refer to: https://libxc.gitlab.io

 This ORCA versions uses:
   CBLAS   interface :  Fast vector & matrix operations
   LAPACKE interface :  Fast linear algebra routines
   SCALAPACK package :  Parallel linear algebra routines
   Shared memory     :  Shared parallel matrices
   BLAS/LAPACK       :  OpenBLAS 0.3.29  USE64BITINT DYNAMIC_ARCH NO_AFFINITY Haswell SINGLE_THREADED
        Core in use  :  Haswell
   Copyright (c) 2011-2014, The OpenBLAS Project


  ***********************************
  * Starting time: Tue Aug 19 14:29:58 2025
  * Host name:     CHEMLAB02
  * Process ID:    3929863
  * Working dir.:  /home/vivek/mm/lab5
  ***********************************



***************************************
The coordinates will be read from file: /home/vivek/mm/lab5/6-311/nh3/monomer/monomer-input-coordinates.xyz
***************************************


================================================================================

----- Orbital basis set information -----
Your calculation utilizes the basis: 6-311G**
   H, Li - Ne  : R. Krishnan, J. S. Binkley, R. Seeger and J. A. Pople, J. Chem. Phys. 72, 650 (1980).
   Na - Ar     : A. D. McLean and G. S. Chandler J. Chem. Phys. 72, 5639, (1980).
   K  - Ca     : J.-P. Blaudeau, M. P. McGrath, L. A. Curtiss and L. Radom, J. Chem. Phys. 107, 5016 (1997).
   Ga - Kr     : L. A. Curtiss, M. P. McGrath, J.-P. Blandeau, N. E. Davis, R. C. Binning and L. Radom, J. Chem. Phys. 103, 6104 (1995).
   Pol./Diff.
   H, Li - Cl  : T. Clark, J. Chandrasekhar and P. v. R. Schleyer, J. Comp. Chem. 4, 294 (1983).
   H - Ne      : M. J. Frisch, J. A. Pople and J. S. Binkley, J. Chem. Phys. 80, 3265 (1984).

================================================================================
                                        WARNINGS
                       Please study these warnings very carefully!
================================================================================


WARNING: The frozen-core approximation for MP2-gradient calculations is turned on by default.

WARNING: Geometry Optimization
  ===> : Switching off AutoStart
         For restart on a previous wavefunction, please use MOREAD

WARNING: Post HF methods need fully converged wavefunctions
  ===> : Setting SCFConvForced true
         You can overwrite this default with %scf ConvForced false 


================================================================================
                                       INPUT FILE
================================================================================
NAME = /home/vivek/mm/lab5/6-311/nh3/monomer/monomer.inp
|  1> ! MP2 6-311G** opt numfreq
|  2> 
|  3> * xyzfile 0 1 /home/vivek/mm/lab5/6-311/nh3/monomer/monomer-input-coordinates.xyz
|  4> 
|  5>                          ****END OF INPUT****
================================================================================

                       *****************************
                       * Geometry Optimization Run *
                       *****************************

Geometry optimization settings:
Update method            Update   .... BFGS
Choice of coordinates    CoordSys .... (2022) Redundant Internals
Initial Hessian          InHess   .... Almloef's Model
Max. no of cycles        MaxIter  .... 50

Convergence Tolerances:
Energy Change            TolE     ....  5.0000e-06 Eh
Max. Gradient            TolMAXG  ....  3.0000e-04 Eh/bohr
RMS Gradient             TolRMSG  ....  1.0000e-04 Eh/bohr
Max. Displacement        TolMAXD  ....  4.0000e-03 bohr
RMS Displacement         TolRMSD  ....  2.0000e-03 bohr
Strict Convergence                .... False

------------------------------------------------------------------------------
                        ORCA OPTIMIZATION COORDINATE SETUP
------------------------------------------------------------------------------

The optimization will be done in redundant internal coordinates (2022)
Making redundant internal coordinates   ...  (2022 redundants) done
Evaluating the initial hessian          ...  (Almloef) done
Evaluating the coordinates              ...  done
Calculating the B-matrix                .... done
Calculating the G-matrix                .... done
The number of degrees of freedom        ....    7

    -----------------------------------------------------------------
                    Redundant Internal Coordinates


    -----------------------------------------------------------------
         Definition                    Initial Value    Approx d2E/dq
    -----------------------------------------------------------------
      1. B(H   1,N   0)                  1.0224         0.413397   
      2. B(H   2,N   0)                  1.0209         0.415727   
      3. B(H   3,N   0)                  1.0214         0.414938   
      4. A(H   1,N   0,H   3)          105.0457         0.299051   
      5. A(H   2,N   0,H   3)          105.3098         0.299319   
      6. A(H   1,N   0,H   2)          105.2253         0.299142   
      7. I(H   1,H   3,H   2,N   0)     64.5052         0.010000   
    -----------------------------------------------------------------

Number of atoms                         .... 4
Number of degrees of freedom            .... 7


         *************************************************************
         *                GEOMETRY OPTIMIZATION CYCLE   1            *
         *************************************************************
---------------------------------
CARTESIAN COORDINATES (ANGSTROEM)
---------------------------------
  N     -3.354995   -0.348029   -0.094160
  H     -3.194559   -0.449027    0.910538
  H     -2.586892   -0.851282   -0.540239
  H     -4.189714   -0.904349   -0.286619

----------------------------
CARTESIAN COORDINATES (A.U.)
----------------------------
  NO LB      ZA    FRAG     MASS         X           Y           Z
   0 N     7.0000    0    14.007   -6.340022   -0.657679   -0.177937
   1 H     1.0000    0     1.008   -6.036842   -0.848538    1.720667
   2 H     1.0000    0     1.008   -4.888517   -1.608690   -1.020904
   3 H     1.0000    0     1.008   -7.917412   -1.708972   -0.541631

--------------------------------
INTERNAL COORDINATES (ANGSTROEM)
--------------------------------
 N      0   0   0     0.000000000000     0.00000000     0.00000000
 H      1   0   0     1.022427688056     0.00000000     0.00000000
 H      1   2   0     1.020897778849   105.22526995     0.00000000
 H      1   2   3     1.021414811936   105.04568962   110.88640801

---------------------------
INTERNAL COORDINATES (A.U.)
---------------------------
 N      0   0   0     0.000000000000     0.00000000     0.00000000
 H      1   0   0     1.932108322165     0.00000000     0.00000000
 H      1   2   0     1.929217212753   105.22526995     0.00000000
 H      1   2   3     1.930194263689   105.04568962   110.88640801

---------------------
BASIS SET INFORMATION
---------------------
There are 2 groups of distinct atoms

 Group   1 Type N   : 11s5p1d contracted to 4s3p1d pattern {6311/311/1}
 Group   2 Type H   : 5s1p contracted to 3s1p pattern {311/1}

Atom   0N    basis set group =>   1
Atom   1H    basis set group =>   2
Atom   2H    basis set group =>   2
Atom   3H    basis set group =>   2
------------------------------------------------------------------------------
                             ORCA STARTUP CALCULATIONS
------------------------------------------------------------------------------
------------------------------------------------------------------------------
                   ___                                                        
                  /   \      - P O W E R E D   B Y -                         
                 /     \                                                     
                 |  |  |   _    _      __       _____    __    __             
                 |  |  |  | |  | |    /  \     |  _  \  |  |  /  |          
                  \  \/   | |  | |   /    \    | | | |  |  | /  /          
                 / \  \   | |__| |  /  /\  \   | |_| |  |  |/  /          
                |  |  |   |  __  | /  /__\  \  |    /   |      \           
                |  |  |   | |  | | |   __   |  |    \   |  |\   \          
                \     /   | |  | | |  |  |  |  | |\  \  |  | \   \       
                 \___/    |_|  |_| |__|  |__|  |_| \__\ |__|  \__/        
                                                                              
                      - O R C A' S   B I G   F R I E N D -                    
                                      &                                       
                       - I N T E G R A L  F E E D E R -                       
                                                                              
 v1 FN, 2020, v2 2021, v3 2022-2024                                           
------------------------------------------------------------------------------


----------------------
SHARK INTEGRAL PACKAGE
----------------------

Number of atoms                             ...      4
Number of basis functions                   ...     36
Number of shells                            ...     20
Maximum angular momentum                    ...      2
Integral batch strategy                     ... SHARK/LIBINT Hybrid
RI-J (if used) integral strategy            ... SPLIT-RIJ (Revised 2003 algorithm where possible)
Printlevel                                  ...      1
Contraction scheme used                     ... SEGMENTED contraction
Prescreening option                         ... SCHWARTZ
   Thresh                                   ... 2.500e-11
   Tcut                                     ... 2.500e-12
   Tpresel                                  ... 2.500e-12 
Coulomb Range Separation                    ... NOT USED
Exchange Range Separation                   ... NOT USED
Multipole approximations                    ... NOT USED
Finite Nucleus Model                        ... NOT USED
CABS basis                                  ... NOT available
Auxiliary Coulomb fitting basis             ... NOT available
Auxiliary J/K fitting basis                 ... NOT available
Auxiliary Correlation fitting basis         ... NOT available
Auxiliary 'external' fitting basis          ... NOT available

Checking pre-screening integrals            ... done (  0.0 sec) Dimension = 20
   => SHARK Basis and OBASIS are compatible. Storing Pre-screening
Shell pair information
Shell pair cut-off parameter TPreSel        ...   2.5e-12
Total number of shell pairs                 ...       210
Shell pairs after pre-screening             ...       210
Total number of primitive shell pairs       ...       660
Primitive shell pairs kept                  ...       630
          la=0 lb=0:     91 shell pairs
          la=1 lb=0:     78 shell pairs
          la=1 lb=1:     21 shell pairs
          la=2 lb=0:     13 shell pairs
          la=2 lb=1:      6 shell pairs
          la=2 lb=2:      1 shell pairs

Checking whether 4 symmetric matrices of dimension 36 fit in memory
:Max Core in MB      =   4096.00
 MB in use           =      1.43
 MB left             =   4094.57
 MB needed           =      0.02
 Data fit in memory  = YES
Calculating Nuclear repulsion               ... done (  0.0 sec) ENN=     11.856096822727 Eh

Diagonalization of the overlap matrix:
Smallest eigenvalue                        ... 1.094e-02
Time for diagonalization                   ...    0.000 sec
Threshold for overlap eigenvalues          ... 1.000e-07
Number of eigenvalues below threshold      ... 0
Time for construction of square roots      ...    0.000 sec
Total time needed                          ...    0.001 sec

-------------------
DFT GRID GENERATION
-------------------

General Integration Accuracy     IntAcc      ... 4.388
Radial Grid Type                 RadialGrid  ... OptM3 with GC (2021)
Angular Grid (max. ang.)         AngularGrid ... 4 (Lebedev-302)
Angular grid pruning method      GridPruning ... 4 (adaptive)
Weight generation scheme         WeightScheme... mBecke (2022)
Basis function cutoff            BFCut       ... 1.0000e-11
Integration weight cutoff        WCut        ... 1.0000e-14
Partially contracted basis set               ... off
Rotationally invariant grid construction     ... off
Angular grids for H and He will be reduced by one unit

Total number of grid points                  ...    15995
Total number of batches                      ...      251
Average number of points per batch           ...       63
Average number of grid points per atom       ...     3999
Grids setup in   0.1 sec
Initializing property integral containers    ... done (  0.0 sec)

SHARK setup successfully completed in   0.2 seconds

Maximum memory used throughout the entire STARTUP-calculation: 7.7 MB
-------------------------------------------------------------------------------
                                 ORCA GUESS
                   Start orbitals & Density for SCF / CASSCF
-------------------------------------------------------------------------------

------------
SCF SETTINGS
------------
Hamiltonian:
 Ab initio Hamiltonian  Method          .... Hartree-Fock(GTOs)


General Settings:
 Integral files         IntName         .... /home/vivek/mm/lab5/6-311/nh3/monomer/monomer
 Hartree-Fock type      HFTyp           .... RHF
 Total Charge           Charge          ....    0
 Multiplicity           Mult            ....    1
 Number of Electrons    NEL             ....   10
 Basis Dimension        Dim             ....   36
 Nuclear Repulsion      ENuc            ....     11.8560968227 Eh

Convergence Acceleration:
 AO-DIIS                CNVDIIS         .... on
   Start iteration      DIISMaxIt       ....    12
   Startup error        DIISStart       ....  0.200000
   # of expansion vecs  DIISMaxEq       ....     5
   Bias factor          DIISBfac        ....   1.050
   Max. coefficient     DIISMaxC        ....  10.000
 MO-DIIS                CNVKDIIS        .... off
 Trust-Rad. Augm. Hess. CNVTRAH         .... auto
   Auto Start mean grad. ratio tolernc. ....  1.125000
   Auto Start start iteration           ....    50
   Auto Start num. interpolation iter.  ....    10
   Max. Number of Micro iterations      ....    24
   Max. Number of Macro iterations      .... Maxiter - #DIIS iter
   Number of Davidson start vectors     ....     2
   Converg. threshold    (grad. norm)   ....   1.000e-05
   Grad. Scal. Fac. for Micro threshold ....   0.100
   Minimum threshold for Micro iter.    ....   1.000e-02
   NR start threshold (gradient norm)   ....   1.000e-04
   Initial trust radius                 ....   0.400
   Minimum AH scaling param. (alpha)    ....   1.000
   Maximum AH scaling param. (alpha)    .... 1000.000
   Quad. conv. algorithm                .... NR
   White noise on init. David. guess    .... on
   Maximum white noise                  ....   0.010
   Pseudo random numbers                .... off
   Inactive MOs                         .... canonical
   Orbital update algorithm             .... Taylor
   Preconditioner                       .... Diag
   Full preconditioner red. dimension   ....   250
 SOSCF                 CNVSOSCF           .... on
   Start iteration     SOSCFMaxIt         ....   150
   Startup grad/error  SOSCFStart         ....  0.003300
   Hessian update      SOSCFHessUp        .... L-BFGS
   Autom. constraints  SOSCFAutoConstrain .... off
 Level Shifting         CNVShift        .... on
   Level shift para.    LevelShift      ....    0.2500
   Turn off err/grad.   ShiftErr        ....    0.0010
 Zerner damping         CNVZerner       .... off
 Static damping         CNVDamp         .... on
   Fraction old density DampFac         ....    0.7000
   Max. Damping (<1)    DampMax         ....    0.9800
   Min. Damping (>=0)   DampMin         ....    0.0000
   Turn off err/grad.   DampErr         ....    0.1000

SCF Procedure:
 Maximum # iterations   MaxIter         ....   125
 SCF integral mode      SCFMode         .... Direct
   Integral package                     .... SHARK and LIBINT hybrid scheme
 Reset frequency        DirectResetFreq ....    20
 Integral Threshold     Thresh          ....  2.500e-11 Eh
 Primitive CutOff       TCut            ....  2.500e-12 Eh

Convergence Tolerance:
 Convergence Check Mode ConvCheckMode   .... Total+1el-Energy
 Convergence forced     ConvForced      .... 1
 Energy Change          TolE            ....  1.000e-08 Eh
 1-El. energy change                    ....  1.000e-05 Eh
 Orbital Gradient       TolG            ....  1.000e-05
 Orbital Rotation angle TolX            ....  1.000e-05
 DIIS Error             TolErr          ....  5.000e-07

------------------------------
INITIAL GUESS: MODEL POTENTIAL
------------------------------
Loading Hartree-Fock densities                     ... done
Calculating cut-offs                               ... done
Initializing the effective Hamiltonian             ... done
Setting up the integral package (SHARK)            ... done
Starting the Coulomb interaction                   ... done (   0.0 sec)
Making the grid                                    ... done (   0.0 sec)
Mapping shells                                     ... done
Starting the XC term evaluation                    ... done (   0.0 sec)
Transforming the Hamiltonian                       ... done (   0.0 sec)
Diagonalizing the Hamiltonian                      ... done (   0.0 sec)
Back transforming the eigenvectors                 ... done (   0.0 sec)
Now organizing SCF variables                       ... done
                      ------------------
                      INITIAL GUESS DONE (   0.1 sec)
                      ------------------
             **** ENERGY FILE WAS UPDATED (/home/vivek/mm/lab5/6-311/nh3/monomer/monomer.en.tmp) ****
Finished Guess after   0.1 sec
Maximum memory used throughout the entire GUESS-calculation: 3.7 MB

-------------------------------------------------------------------------------------------
                                      ORCA LEAN-SCF
                              memory conserving SCF solver
-------------------------------------------------------------------------------------------

----------------------------------------D-I-I-S--------------------------------------------
Iteration    Energy (Eh)           Delta-E    RMSDP     MaxDP     DIISErr   Damp  Time(sec)
-------------------------------------------------------------------------------------------
               ***  Starting incremental Fock matrix formation  ***
    1    -56.0686472897504160     0.00e+00  5.10e-03  6.66e-02  4.14e-01  0.700   0.1
    2    -56.1235113842312643    -5.49e-02  3.63e-03  4.19e-02  2.47e-01  0.700   0.2
                               ***Turning on AO-DIIS***
    3    -56.1533483475452613    -2.98e-02  1.47e-03  1.21e-02  1.36e-01  0.700   0.1
    4    -56.1712494019282360    -1.79e-02  8.81e-04  5.33e-03  9.08e-02  0.700   0.1
    5    -56.1830090639113848    -1.18e-02  2.07e-03  1.36e-02  6.37e-02  0.000   0.0
                              *** Initializing SOSCF ***
---------------------------------------S-O-S-C-F--------------------------------------
Iteration    Energy (Eh)           Delta-E    RMSDP     MaxDP     MaxGrad    Time(sec)
--------------------------------------------------------------------------------------
    6    -56.2092016296441699    -2.62e-02  3.18e-04  3.26e-03  2.67e-03     0.1
               *** Restarting incremental Fock matrix formation ***
    7    -56.2092340789725853    -3.24e-05  2.07e-04  1.84e-03  7.39e-04     0.1
    8    -56.2092420462129638    -7.97e-06  1.70e-04  1.95e-03  3.79e-04     0.0
    9    -56.2092436273894549    -1.58e-06  1.91e-05  2.62e-04  1.73e-04     0.0
   10    -56.2092437278755028    -1.00e-07  3.40e-06  2.56e-05  1.81e-05     0.1
   11    -56.2092437323736931    -4.50e-09  2.60e-06  2.30e-05  8.21e-06     0.0
                 **** Energy Check signals convergence ****

               *****************************************************
               *                     SUCCESS                       *
               *           SCF CONVERGED AFTER  11 CYCLES          *
               *****************************************************

             **** ENERGY FILE WAS UPDATED (/home/vivek/mm/lab5/6-311/nh3/monomer/monomer.en.tmp) ****

----------------
TOTAL SCF ENERGY
----------------

Total Energy       :        -56.20924373333463 Eh           -1529.53128 eV

Components:
Nuclear Repulsion  :         11.85609682272650 Eh             322.62080 eV
Electronic Energy  :        -68.06534055606113 Eh           -1852.15208 eV
One Electron Energy:        -99.47642707096468 Eh           -2706.89120 eV
Two Electron Energy:         31.41108651490354 Eh             854.73912 eV

Virial components:
Potential Energy   :       -112.36181096349810 Eh           -3057.52032 eV
Kinetic Energy     :         56.15256723016348 Eh            1527.98904 eV
Virial Ratio       :          2.00100933057858

---------------
SCF CONVERGENCE
---------------

  Last Energy change         ...    4.4982e-09  Tolerance :   1.0000e-08
  Last MAX-Density change    ...    2.2983e-05  Tolerance :   1.0000e-07
  Last RMS-Density change    ...    2.6042e-06  Tolerance :   5.0000e-09
  Last DIIS Error            ...    2.6671e-03  Tolerance :   5.0000e-07
  Last Orbital Gradient      ...    8.2076e-06  Tolerance :   1.0000e-05
  Last Orbital Rotation      ...    2.8443e-05  Tolerance :   1.0000e-05


----------------
ORBITAL ENERGIES
----------------

  NO   OCC          E(Eh)            E(eV) 
   0   2.0000     -15.533355      -422.6841 
   1   2.0000      -1.133844       -30.8535 
   2   2.0000      -0.616838       -16.7850 
   3   2.0000      -0.615802       -16.7568 
   4   2.0000      -0.427288       -11.6271 
   5   0.0000       0.154559         4.2058 
   6   0.0000       0.229114         6.2345 
   7   0.0000       0.229155         6.2356 
   8   0.0000       0.513133        13.9631 
   9   0.0000       0.514013        13.9870 
  10   0.0000       0.671237        18.2653 
  11   0.0000       0.817816        22.2539 
  12   0.0000       0.953047        25.9337 
  13   0.0000       0.953261        25.9396 
  14   0.0000       1.122282        30.5388 
  15   0.0000       1.346548        36.6414 
*Only the first 10 virtual orbitals were printed.

                    ********************************
                    * MULLIKEN POPULATION ANALYSIS *
                    ********************************

-----------------------
MULLIKEN ATOMIC CHARGES
-----------------------
   0 N :   -0.551399
   1 H :    0.183533
   2 H :    0.184105
   3 H :    0.183760
Sum of atomic charges:   -0.0000000

--------------------------------
MULLIKEN REDUCED ORBITAL CHARGES
--------------------------------
  0 N s       :     3.531438  s :     3.531438
      pz      :     1.175676  p :     3.994040
      px      :     1.123606
      py      :     1.694759
      dz2     :     0.009272  d :     0.025920
      dxz     :     0.002269
      dyz     :     0.002915
      dx2y2   :     0.000448
      dxy     :     0.011015

  1 H s       :     0.771730  s :     0.771730
      pz      :     0.023779  p :     0.044737
      px      :     0.008383
      py      :     0.012576

  2 H s       :     0.771092  s :     0.771092
      pz      :     0.011981  p :     0.044803
      px      :     0.017303
      py      :     0.015518

  3 H s       :     0.771451  s :     0.771451
      pz      :     0.009201  p :     0.044789
      px      :     0.019314
      py      :     0.016274



                     *******************************
                     * LOEWDIN POPULATION ANALYSIS *
                     *******************************

----------------------
LOEWDIN ATOMIC CHARGES
----------------------
   0 N :   -0.076346
   1 H :    0.025796
   2 H :    0.025181
   3 H :    0.025369

-------------------------------
LOEWDIN REDUCED ORBITAL CHARGES
-------------------------------
  0 N s       :     3.075647  s :     3.075647
      pz      :     1.183590  p :     3.965698
      px      :     1.137467
      py      :     1.644641
      dz2     :     0.013418  d :     0.035001
      dxz     :     0.004554
      dyz     :     0.002759
      dx2y2   :     0.000480
      dxy     :     0.013789

  1 H s       :     0.847630  s :     0.847630
      pz      :     0.066354  p :     0.126574
      px      :     0.020702
      py      :     0.039518

  2 H s       :     0.847734  s :     0.847734
      pz      :     0.030761  p :     0.127085
      px      :     0.046315
      py      :     0.050010

  3 H s       :     0.847718  s :     0.847718
      pz      :     0.023252  p :     0.126914
      px      :     0.051294
      py      :     0.052368



                      *****************************
                      * MAYER POPULATION ANALYSIS *
                      *****************************

  NA   - Mulliken gross atomic population
  ZA   - Total nuclear charge
  QA   - Mulliken gross atomic charge
  VA   - Mayer's total valence
  BVA  - Mayer's bonded valence
  FA   - Mayer's free valence

  ATOM       NA         ZA         QA         VA         BVA        FA
  0 N      7.5514     7.0000    -0.5514     2.9032     2.9032    -0.0000
  1 H      0.8165     1.0000     0.1835     0.9669     0.9669    -0.0000
  2 H      0.8159     1.0000     0.1841     0.9668     0.9668     0.0000
  3 H      0.8162     1.0000     0.1838     0.9668     0.9668     0.0000

  Mayer bond orders larger than 0.100000
B(  0-N ,  1-H ) :   0.9678 B(  0-N ,  2-H ) :   0.9676 B(  0-N ,  3-H ) :   0.9678 


-------
TIMINGS
-------

Total SCF time: 0 days 0 hours 0 min 1 sec 

Total time                  ....       1.015 sec
Sum of individual times     ....       0.986 sec  ( 97.2%)

SCF preparation             ....       0.054 sec  (  5.3%)
Fock matrix formation       ....       0.367 sec  ( 36.2%)
  Startup                   ....       0.000 sec  (  0.1% of F)
  Coulomb+Exchange Fock     ....       0.344 sec  ( 93.7% of F)
Diagonalization             ....       0.000 sec  (  0.0%)
Density matrix formation    ....       0.234 sec  ( 23.0%)
Total Energy calculation    ....       0.000 sec  (  0.0%)
Population analysis         ....       0.002 sec  (  0.2%)
Orbital Transformation      ....       0.157 sec  ( 15.5%)
Orbital Orthonormalization  ....       0.000 sec  (  0.0%)
DIIS solution               ....       0.115 sec  ( 11.3%)
SOSCF solution              ....       0.058 sec  (  5.7%)
Finished LeanSCF after   1.2 sec

Maximum memory used throughout the entire LEANSCF-calculation: 7.2 MB

------------------------------------------------------------------------------
                                ORCA  MP2 
------------------------------------------------------------------------------

Freezing NCore=2 chemical core electrons
MP2 will be done in the AO integral direct mode
The Q1-step will be done using symmetric double matrices
Dimension of the basis                    ...   36
Memory devoted for MP2                    ... 4096 MB   
Memory needed for all in one shot         ...    2 MB
Number of MOs that can be treated together... 22391      
MP2 density construction                  ... relaxed
The MP2 gradient is requested => amplitudes will be stored on disk
Total number of MOs              ...    4
Number of MOs treated per batch  ...    4 
Number of batches necessary      ...    1 
OPERATORS   0/  0 PASS   0
-----------------------------------------------
 MP2 CORRELATION ENERGY   :     -0.199399761 Eh
-----------------------------------------------


---------------------
MP2 DENSITY FORMATION
---------------------

Completing the external part of the density      ... done
Storing the unrelaxed density                    ... done

Calculating G(D)                                 ... done
Completing the Lagrangian                        ... done
Solving the Z-vector equations                   ... 
-------------------
SHARK CP-SCF DRIVER
-------------------

Dimension of the orbital basis          ...     36
Dimension of the CPSCF-problem          ...    155
Number of operators                     ...      1
Max. number of iterations               ...    128
Convergence Tolerance                   ... 1.0e-04
Number of perturbations                 ...      1
Perturbation type                       ... REAL

----------------------------
POPLE LINEAR EQUATION SOLVER
----------------------------

  ITERATION   0:   ||err||_max =   2.9231e-02 (   0.1 sec)
  ITERATION   1:   ||err||_max =   6.0052e-03 (   0.0 sec)
  ITERATION   2:   ||err||_max =   1.3670e-03 (   0.0 sec)
  ITERATION   3:   ||err||_max =   2.2841e-04 (   0.0 sec)
  ITERATION   4:   ||err||_max =   4.4790e-05 (   0.0 sec)
                                                 ... done
Finalizing the relaxed density                   ... done
Transforming P to the AO basis                   ... done
Storing the relaxed density                      ... done

------------------------------------
ENERGY WEIGHTED DENSITY FINALIZATION
------------------------------------

Gathering the parts of the W-matrix              ...                                                      done
Forming the Z-density                            ... done
Transforming Z to the AO basis                   ... done
Calculating G(Z)                                 ... done
Finalizing the W-matrix                          ...                                                      done
Transforming W to the AO basis and storing       ... done

                *********************************************
                * UNRELAXED MP2 DENSITY POPULATION ANALYSIS *
                *********************************************

------------------------------------------------------------------------------
                           ORCA POPULATION ANALYSIS
------------------------------------------------------------------------------
Input electron density              ... /home/vivek/mm/lab5/6-311/nh3/monomer/monomer.pmp2ur
BaseName (.gbw .S,...)              ... /home/vivek/mm/lab5/6-311/nh3/monomer/monomer

                    ********************************
                    * MULLIKEN POPULATION ANALYSIS *
                    ********************************

-----------------------
MULLIKEN ATOMIC CHARGES
-----------------------
   0 N :   -0.548529
   1 H :    0.182571
   2 H :    0.183154
   3 H :    0.182804
Sum of atomic charges:   -0.0000000

--------------------------------
MULLIKEN REDUCED ORBITAL CHARGES
--------------------------------
  0 N s       :     3.527843  s :     3.527843
      pz      :     1.171655  p :     3.976856
      px      :     1.120157
      py      :     1.685044
      dz2     :     0.012651  d :     0.043830
      dxz     :     0.005777
      dyz     :     0.006672
      dx2y2   :     0.004222
      dxy     :     0.014508
  1 H s       :     0.769985  s :     0.769985
      pz      :     0.023801  p :     0.047444
      px      :     0.009684
      py      :     0.013960
  2 H s       :     0.769344  s :     0.769344
      pz      :     0.012977  p :     0.047502
      px      :     0.017817
      py      :     0.016708
  3 H s       :     0.769704  s :     0.769704
      pz      :     0.010460  p :     0.047492
      px      :     0.019626
      py      :     0.017406


                     *******************************
                     * LOEWDIN POPULATION ANALYSIS *
                     *******************************

----------------------
LOEWDIN ATOMIC CHARGES
----------------------
   0 N :   -0.073312
   1 H :    0.024778
   2 H :    0.024176
   3 H :    0.024358

-------------------------------
LOEWDIN REDUCED ORBITAL CHARGES
-------------------------------
  0 N s       :     3.073675  s :     3.073675
      pz      :     1.178070  p :     3.945336
      px      :     1.132369
      py      :     1.634897
      dz2     :     0.017329  d :     0.054300
      dxz     :     0.008118
      dyz     :     0.006647
      dx2y2   :     0.004322
      dxy     :     0.017884
  1 H s       :     0.843902  s :     0.843902
      pz      :     0.068439  p :     0.131320
      px      :     0.022081
      py      :     0.040800
  2 H s       :     0.843996  s :     0.843996
      pz      :     0.032185  p :     0.131828
      px      :     0.048064
      py      :     0.051578
  3 H s       :     0.843984  s :     0.843984
      pz      :     0.024602  p :     0.131659
      px      :     0.053066
      py      :     0.053991


                      *****************************
                      * MAYER POPULATION ANALYSIS *
                      *****************************

  NA   - Mulliken gross atomic population
  ZA   - Total nuclear charge
  QA   - Mulliken gross atomic charge
  VA   - Mayer's total valence
  BVA  - Mayer's bonded valence
  FA   - Mayer's free valence

  ATOM       NA         ZA         QA         VA         BVA        FA
  0 N      7.5485     7.0000    -0.5485     3.0879     2.7815     0.3064
  1 H      0.8174     1.0000     0.1826     0.9752     0.9254     0.0498
  2 H      0.8168     1.0000     0.1832     0.9751     0.9254     0.0497
  3 H      0.8172     1.0000     0.1828     0.9752     0.9254     0.0497

  Mayer bond orders larger than 0.100000
B(  0-N ,  1-H ) :   0.9272 B(  0-N ,  2-H ) :   0.9271 B(  0-N ,  3-H ) :   0.9272 



                *******************************************
                * RELAXED MP2 DENSITY POPULATION ANALYSIS *
                *******************************************

------------------------------------------------------------------------------
                           ORCA POPULATION ANALYSIS
------------------------------------------------------------------------------
Input electron density              ... /home/vivek/mm/lab5/6-311/nh3/monomer/monomer.pmp2re
BaseName (.gbw .S,...)              ... /home/vivek/mm/lab5/6-311/nh3/monomer/monomer

                    ********************************
                    * MULLIKEN POPULATION ANALYSIS *
                    ********************************

-----------------------
MULLIKEN ATOMIC CHARGES
-----------------------
   0 N :   -0.551273
   1 H :    0.183485
   2 H :    0.184069
   3 H :    0.183718
Sum of atomic charges:   -0.0000000

--------------------------------
MULLIKEN REDUCED ORBITAL CHARGES
--------------------------------
  0 N s       :     3.528391  s :     3.528391
      pz      :     1.173568  p :     3.980994
      px      :     1.122239
      py      :     1.685186
      dz2     :     0.011789  d :     0.041888
      dxz     :     0.005401
      dyz     :     0.006639
      dx2y2   :     0.004300
      dxy     :     0.013758
  1 H s       :     0.770621  s :     0.770621
      pz      :     0.021027  p :     0.045894
      px      :     0.010132
      py      :     0.014735
  2 H s       :     0.769984  s :     0.769984
      pz      :     0.012763  p :     0.045947
      px      :     0.016330
      py      :     0.016855
  3 H s       :     0.770342  s :     0.770342
      pz      :     0.010851  p :     0.045940
      px      :     0.017701
      py      :     0.017387


                     *******************************
                     * LOEWDIN POPULATION ANALYSIS *
                     *******************************

----------------------
LOEWDIN ATOMIC CHARGES
----------------------
   0 N :   -0.078255
   1 H :    0.026444
   2 H :    0.025808
   3 H :    0.026003

-------------------------------
LOEWDIN REDUCED ORBITAL CHARGES
-------------------------------
  0 N s       :     3.075332  s :     3.075332
      pz      :     1.181691  p :     3.951166
      px      :     1.136519
      py      :     1.632956
      dz2     :     0.016279  d :     0.051757
      dxz     :     0.007637
      dyz     :     0.006559
      dx2y2   :     0.004247
      dxy     :     0.017034
  1 H s       :     0.842633  s :     0.842633
      pz      :     0.066941  p :     0.130924
      px      :     0.022348
      py      :     0.041635
  2 H s       :     0.842770  s :     0.842770
      pz      :     0.032006  p :     0.131421
      px      :     0.047189
      py      :     0.052226
  3 H s       :     0.842739  s :     0.842739
      pz      :     0.024826  p :     0.131258
      px      :     0.051865
      py      :     0.054567


                      *****************************
                      * MAYER POPULATION ANALYSIS *
                      *****************************

  NA   - Mulliken gross atomic population
  ZA   - Total nuclear charge
  QA   - Mulliken gross atomic charge
  VA   - Mayer's total valence
  BVA  - Mayer's bonded valence
  FA   - Mayer's free valence

  ATOM       NA         ZA         QA         VA         BVA        FA
  0 N      7.5513     7.0000    -0.5513     3.0869     2.7821     0.3048
  1 H      0.8165     1.0000     0.1835     0.9746     0.9250     0.0495
  2 H      0.8159     1.0000     0.1841     0.9745     0.9251     0.0494
  3 H      0.8163     1.0000     0.1837     0.9745     0.9251     0.0494

  Mayer bond orders larger than 0.100000
B(  0-N ,  1-H ) :   0.9274 B(  0-N ,  2-H ) :   0.9273 B(  0-N ,  3-H ) :   0.9274 



----------------------------------
MP2 DERIVATIVE INTEGRAL GENERATION
----------------------------------

Input SCF Electron Density              ... /home/vivek/mm/lab5/6-311/nh3/monomer/monomer.scfp
Input Correlated Electron Density       ... /home/vivek/mm/lab5/6-311/nh3/monomer/monomer.pmp2re
Input Energy Weighted Density           ... /home/vivek/mm/lab5/6-311/nh3/monomer/monomer.wmp2.tmp
Input Wavefunction Amplitudes           ... /home/vivek/mm/lab5/6-311/nh3/monomer/monomer.mp2tsaa.tmp

Nuclear repulsion gradient              ... done (  0.0 sec)
HCore & Overlap gradient  (SHARK)       ... done (  0.0 sec)
Analytic two-electron gradient terms    ... 
  Batch handling in the gradient evaluation:
  General contraction                   ... not used
  Memory available                      ... 4094.3 MB
  Memory per occupied orbital in Q2     ...    0.0 MB
  Memory per occupied orbital in Q3     ...    0.0 MB
  Total memory requirement per |i>      ...    0.0 MB
  Number of orbitals treated per batch  ...      4
  Number of batches to be done          ...      1
done (  0.3 sec)

---------------------------------------
MP2 TOTAL ENERGY:      -56.408643494 Eh
---------------------------------------

The final MP2 gradient
  0:  -0.00025684   0.00747764  -0.00366794
  1:   0.00081757  -0.00121547   0.00627976
  2:   0.00388597  -0.00286779  -0.00202384
  3:  -0.00444671  -0.00339438  -0.00058797

-----------------------------------
NORM OF THE MP2 GRADIENT:  0.013041
-----------------------------------

Maximum memory used throughout the entire MP2-calculation: 13.4 MB

-------------------------   --------------------
FINAL SINGLE POINT ENERGY       -56.408643494275
-------------------------   --------------------

------------------------------------------------------------------------------
                         ORCA GEOMETRY RELAXATION STEP
------------------------------------------------------------------------------

Reading the OPT-File                    .... done
Getting information on internals        .... done
Copying old internal coords+grads       .... done
Making the new internal coordinates     .... (2022 redundants) done
Validating the new internal coordinates .... (2022 redundants) done
Calculating the B-matrix                .... done
Calculating the G,G- and P matrices     .... done
Transforming gradient to internals      .... done
Projecting the internal gradient        .... done
Number of atoms                         ....   4
Number of internal coordinates          ....   7
Current Energy                          ....   -56.408643494 Eh
Current gradient norm                   ....     0.013041386 Eh/bohr
Maximum allowed component of the step   ....  0.300
Current trust radius                    ....  0.300
Evaluating the initial hessian          ....  (Almloef) done
Projecting the Hessian                  .... done
Forming the augmented Hessian           .... done
Diagonalizing the augmented Hessian     .... done
Last element of RFO vector              ....  0.999680107
Lowest eigenvalues of augmented Hessian:
 -0.000248014  0.119036702  0.299096122  0.299306435  0.413489156
Length of the computed step             ....  0.025300051
The final length of the internal step   ....  0.025300051
Converting the step to Cartesian space:
 Initial RMS(Int)=    0.0095625204
Transforming coordinates:
 Iter   0:  RMS(Cart)=    0.0059812360 RMS(Int)=    0.0095654572
done
Storing new coordinates                 .... done

                                .--------------------.
          ----------------------|Geometry convergence|-------------------------
          Item                value                   Tolerance       Converged
          ---------------------------------------------------------------------
          RMS gradient        0.0037937346            0.0001000000      NO
          MAX gradient        0.0064192190            0.0003000000      NO
          RMS step            0.0095625204            0.0020000000      NO
          MAX step            0.0155186656            0.0040000000      NO
          -------------------------------------------------------------------------
          ........................................................
          Max(Bonds)      0.0082      Max(Angles)    0.22
          Max(Dihed)        0.00      Max(Improp)    0.35
          ---------------------------------------------------------------------

The optimization has not yet converged - more geometry cycles are needed


    ---------------------------------------------------------------------------
                         Redundant Internal Coordinates
                            (Angstroem and degrees)

        Definition                    Value    dE/dq     Step     New-Value
    ----------------------------------------------------------------------------
     1. B(H   1,N   0)                1.0224  0.006419 -0.0082    1.0142   
     2. B(H   2,N   0)                1.0209  0.005222 -0.0066    1.0143   
     3. B(H   3,N   0)                1.0214  0.005593 -0.0071    1.0143   
     4. A(H   1,N   0,H   3)          105.05 -0.000588    0.22    105.27   
     5. A(H   2,N   0,H   3)          105.31 -0.000332    0.10    105.41   
     6. A(H   1,N   0,H   2)          105.23 -0.000112    0.13    105.36   
     7. I(H   1,H   3,H   2,N   0)     64.51  0.000720   -0.35     64.16   
    ----------------------------------------------------------------------------

Geometry step timings:
Preparation and reading OPT file:      0.000 s ( 7.678 %)
Internal coordinates            :      0.000 s ( 4.682 %)
B/P matrices and projection     :      0.000 s (20.037 %)
Hessian update/contruction      :      0.000 s (16.292 %)
Making the step                 :      0.000 s (14.981 %)
Converting the step to Cartesian:      0.000 s ( 5.805 %)
Storing new data                :      0.000 s ( 4.494 %)
Checking convergence            :      0.000 s ( 8.052 %)
Final printing                  :      0.000 s (17.978 %)
Total time                      :      0.001 s

Time for energy+gradient        :      2.719 s
Time for complete geometry iter :      2.738 s

         *************************************************************
         *                GEOMETRY OPTIMIZATION CYCLE   2            *
         *************************************************************
---------------------------------
CARTESIAN COORDINATES (ANGSTROEM)
---------------------------------
  N     -3.354955   -0.351502   -0.092403
  H     -3.195198   -0.449490    0.904346
  H     -2.591422   -0.849504   -0.537065
  H     -4.184585   -0.902191   -0.285358

----------------------------
CARTESIAN COORDINATES (A.U.)
----------------------------
  NO LB      ZA    FRAG     MASS         X           Y           Z
   0 N     7.0000    0    14.007   -6.339947   -0.664243   -0.174617
   1 H     1.0000    0     1.008   -6.038049   -0.849413    1.708966
   2 H     1.0000    0     1.008   -4.897077   -1.605329   -1.014906
   3 H     1.0000    0     1.008   -7.907720   -1.704895   -0.539248

--------------------------------
INTERNAL COORDINATES (ANGSTROEM)
--------------------------------
 N      0   0   0     0.000000000000     0.00000000     0.00000000
 H      1   0   0     1.014215563935     0.00000000     0.00000000
 H      1   2   0     1.014255032036   105.35766544     0.00000000
 H      1   2   3     1.014285602714   105.26873501   111.14127447

---------------------------
INTERNAL COORDINATES (A.U.)
---------------------------
 N      0   0   0     0.000000000000     0.00000000     0.00000000
 H      1   0   0     1.916589656598     0.00000000     0.00000000
 H      1   2   0     1.916664240499   105.35766544     0.00000000
 H      1   2   3     1.916722010708   105.26873501   111.14127447

------------------------------------------------------------------------------
                   ___                                                        
                  /   \      - P O W E R E D   B Y -                         
                 /     \                                                     
                 |  |  |   _    _      __       _____    __    __             
                 |  |  |  | |  | |    /  \     |  _  \  |  |  /  |          
                  \  \/   | |  | |   /    \    | | | |  |  | /  /          
                 / \  \   | |__| |  /  /\  \   | |_| |  |  |/  /          
                |  |  |   |  __  | /  /__\  \  |    /   |      \           
                |  |  |   | |  | | |   __   |  |    \   |  |\   \          
                \     /   | |  | | |  |  |  |  | |\  \  |  | \   \       
                 \___/    |_|  |_| |__|  |__|  |_| \__\ |__|  \__/        
                                                                              
                      - O R C A' S   B I G   F R I E N D -                    
                                      &                                       
                       - I N T E G R A L  F E E D E R -                       
                                                                              
 v1 FN, 2020, v2 2021, v3 2022-2024                                           
------------------------------------------------------------------------------


----------------------
SHARK INTEGRAL PACKAGE
----------------------

Number of atoms                             ...      4
Number of basis functions                   ...     36
Number of shells                            ...     20
Maximum angular momentum                    ...      2
Integral batch strategy                     ... SHARK/LIBINT Hybrid
RI-J (if used) integral strategy            ... SPLIT-RIJ (Revised 2003 algorithm where possible)
Printlevel                                  ...      1
Contraction scheme used                     ... SEGMENTED contraction
Prescreening option                         ... SCHWARTZ
   Thresh                                   ... 2.500e-11
   Tcut                                     ... 2.500e-12
   Tpresel                                  ... 2.500e-12 
Coulomb Range Separation                    ... NOT USED
Exchange Range Separation                   ... NOT USED
Multipole approximations                    ... NOT USED
Finite Nucleus Model                        ... NOT USED
CABS basis                                  ... NOT available
Auxiliary Coulomb fitting basis             ... NOT available
Auxiliary J/K fitting basis                 ... NOT available
Auxiliary Correlation fitting basis         ... NOT available
Auxiliary 'external' fitting basis          ... NOT available

Checking pre-screening integrals            ... done (  0.0 sec) Dimension = 20
   => SHARK Basis and OBASIS are compatible. Storing Pre-screening
Shell pair information
Shell pair cut-off parameter TPreSel        ...   2.5e-12
Total number of shell pairs                 ...       210
Shell pairs after pre-screening             ...       210
Total number of primitive shell pairs       ...       660
Primitive shell pairs kept                  ...       630
          la=0 lb=0:     91 shell pairs
          la=1 lb=0:     78 shell pairs
          la=1 lb=1:     21 shell pairs
          la=2 lb=0:     13 shell pairs
          la=2 lb=1:      6 shell pairs
          la=2 lb=2:      1 shell pairs

Checking whether 4 symmetric matrices of dimension 36 fit in memory
:Max Core in MB      =   4096.00
 MB in use           =      1.44
 MB left             =   4094.56
 MB needed           =      0.02
 Data fit in memory  = YES
Calculating Nuclear repulsion               ... done (  0.0 sec) ENN=     11.940750887303 Eh

Diagonalization of the overlap matrix:
Smallest eigenvalue                        ... 1.068e-02
Time for diagonalization                   ...    0.000 sec
Threshold for overlap eigenvalues          ... 1.000e-07
Number of eigenvalues below threshold      ... 0
Time for construction of square roots      ...    0.000 sec
Total time needed                          ...    0.001 sec

-------------------
DFT GRID GENERATION
-------------------

General Integration Accuracy     IntAcc      ... 4.388
Radial Grid Type                 RadialGrid  ... OptM3 with GC (2021)
Angular Grid (max. ang.)         AngularGrid ... 4 (Lebedev-302)
Angular grid pruning method      GridPruning ... 4 (adaptive)
Weight generation scheme         WeightScheme... mBecke (2022)
Basis function cutoff            BFCut       ... 1.0000e-11
Integration weight cutoff        WCut        ... 1.0000e-14
Partially contracted basis set               ... off
Rotationally invariant grid construction     ... off
Angular grids for H and He will be reduced by one unit

Total number of grid points                  ...    15995
Total number of batches                      ...      251
Average number of points per batch           ...       63
Average number of grid points per atom       ...     3999
Grids setup in   0.1 sec
Initializing property integral containers    ... done (  0.0 sec)

SHARK setup successfully completed in   0.1 seconds

Maximum memory used throughout the entire STARTUP-calculation: 7.7 MB
Occupation numbers will be reassigned to an Aufbau configuration
             **** ENERGY FILE WAS UPDATED (/home/vivek/mm/lab5/6-311/nh3/monomer/monomer.en.tmp) ****
Finished Guess after   0.0 sec
Maximum memory used throughout the entire GUESS-calculation: 3.7 MB
----------------------------------------D-I-I-S--------------------------------------------
Iteration    Energy (Eh)           Delta-E    RMSDP     MaxDP     DIISErr   Damp  Time(sec)
-------------------------------------------------------------------------------------------
               ***  Starting incremental Fock matrix formation  ***
    1    -56.2097741491722331     0.00e+00  7.91e-05  9.88e-04  4.94e-03  0.700   0.0
    2    -56.2097858931803813    -1.17e-05  6.99e-05  8.88e-04  3.36e-03  0.700   0.1
                               ***Turning on AO-DIIS***
                              *** Initializing SOSCF ***
---------------------------------------S-O-S-C-F--------------------------------------
Iteration    Energy (Eh)           Delta-E    RMSDP     MaxDP     MaxGrad    Time(sec)
--------------------------------------------------------------------------------------
    3    -56.2097943833398119    -8.49e-06  2.01e-04  2.32e-03  2.32e-03     0.1
               *** Restarting incremental Fock matrix formation ***
    4    -56.2098168213737353    -2.24e-05  5.47e-05  6.06e-04  2.68e-04     0.1
    5    -56.2098174943526061    -6.73e-07  4.62e-05  4.29e-04  1.23e-04     0.0
    6    -56.2098176468520450    -1.52e-07  4.96e-06  6.06e-05  5.08e-05     1.4
    7    -56.2098176554850113    -8.63e-09  1.22e-06  9.38e-06  1.22e-05     0.0
                 **** Energy Check signals convergence ****

               *****************************************************
               *                     SUCCESS                       *
               *           SCF CONVERGED AFTER   7 CYCLES          *
               *****************************************************

             **** ENERGY FILE WAS UPDATED (/home/vivek/mm/lab5/6-311/nh3/monomer/monomer.en.tmp) ****

----------------
TOTAL SCF ENERGY
----------------

Total Energy       :        -56.20981765628706 Eh           -1529.54690 eV

Components:
Nuclear Repulsion  :         11.94075088730257 Eh             324.92435 eV
Electronic Energy  :        -68.15056854358963 Eh           -1854.47125 eV
One Electron Energy:        -99.63311319831249 Eh           -2711.15484 eV
Two Electron Energy:         31.48254465472286 Eh             856.68359 eV

Virial components:
Potential Energy   :       -112.39833623549112 Eh           -3058.51422 eV
Kinetic Energy     :         56.18851857920405 Eh            1528.96732 eV
Virial Ratio       :          2.00037906457799

---------------
SCF CONVERGENCE
---------------

  Last Energy change         ...    8.6330e-09  Tolerance :   1.0000e-08
  Last MAX-Density change    ...    9.3813e-06  Tolerance :   1.0000e-07
  Last RMS-Density change    ...    1.2157e-06  Tolerance :   5.0000e-09
  Last DIIS Error            ...    2.3174e-03  Tolerance :   5.0000e-07
  Last Orbital Gradient      ...    1.2248e-05  Tolerance :   1.0000e-05
  Last Orbital Rotation      ...    8.9384e-06  Tolerance :   1.0000e-05


Total SCF time: 0 days 0 hours 0 min 2 sec 
Finished LeanSCF after   3.4 sec

Maximum memory used throughout the entire LEANSCF-calculation: 7.3 MB

------------------------------------------------------------------------------
                                ORCA  MP2 
------------------------------------------------------------------------------

Freezing NCore=2 chemical core electrons
MP2 will be done in the AO integral direct mode
The Q1-step will be done using symmetric double matrices
Dimension of the basis                    ...   36
Memory devoted for MP2                    ... 4096 MB   
Memory needed for all in one shot         ...    2 MB
Number of MOs that can be treated together... 22391      
MP2 density construction                  ... relaxed
The MP2 gradient is requested => amplitudes will be stored on disk
Total number of MOs              ...    4
Number of MOs treated per batch  ...    4 
Number of batches necessary      ...    1 
OPERATORS   0/  0 PASS   0
-----------------------------------------------
 MP2 CORRELATION ENERGY   :     -0.198950134 Eh
-----------------------------------------------


---------------------
MP2 DENSITY FORMATION
---------------------

Completing the external part of the density      ... done
Storing the unrelaxed density                    ... done

Calculating G(D)                                 ... done
Completing the Lagrangian                        ... done
Solving the Z-vector equations                   ... 
-------------------
SHARK CP-SCF DRIVER
-------------------

Dimension of the orbital basis          ...     36
Dimension of the CPSCF-problem          ...    155
Number of operators                     ...      1
Max. number of iterations               ...    128
Convergence Tolerance                   ... 1.0e-04
Number of perturbations                 ...      1
Perturbation type                       ... REAL

----------------------------
POPLE LINEAR EQUATION SOLVER
----------------------------

  ITERATION   0:   ||err||_max =   2.8490e-02 (   0.0 sec)
  ITERATION   1:   ||err||_max =   5.7823e-03 (   0.0 sec)
  ITERATION   2:   ||err||_max =   1.3044e-03 (   0.0 sec)
  ITERATION   3:   ||err||_max =   2.1865e-04 (   0.0 sec)
  ITERATION   4:   ||err||_max =   4.2687e-05 (   0.0 sec)
                                                 ... done
Finalizing the relaxed density                   ... done
Transforming P to the AO basis                   ... done
Storing the relaxed density                      ... done

------------------------------------
ENERGY WEIGHTED DENSITY FINALIZATION
------------------------------------

Gathering the parts of the W-matrix              ...                                                      done
Forming the Z-density                            ... done
Transforming Z to the AO basis                   ... done
Calculating G(Z)                                 ... done
Finalizing the W-matrix                          ...                                                      done
Transforming W to the AO basis and storing       ... done

----------------------------------
MP2 DERIVATIVE INTEGRAL GENERATION
----------------------------------

Input SCF Electron Density              ... /home/vivek/mm/lab5/6-311/nh3/monomer/monomer.scfp
Input Correlated Electron Density       ... /home/vivek/mm/lab5/6-311/nh3/monomer/monomer.pmp2re
Input Energy Weighted Density           ... /home/vivek/mm/lab5/6-311/nh3/monomer/monomer.wmp2.tmp
Input Wavefunction Amplitudes           ... /home/vivek/mm/lab5/6-311/nh3/monomer/monomer.mp2tsaa.tmp

Nuclear repulsion gradient              ... done (  0.0 sec)
HCore & Overlap gradient  (SHARK)       ... done (  0.0 sec)
Analytic two-electron gradient terms    ... 
  Batch handling in the gradient evaluation:
  General contraction                   ... not used
  Memory available                      ... 4094.2 MB
  Memory per occupied orbital in Q2     ...    0.0 MB
  Memory per occupied orbital in Q3     ...    0.0 MB
  Total memory requirement per |i>      ...    0.0 MB
  Number of orbitals treated per batch  ...      4
  Number of batches to be done          ...      1
done (  0.1 sec)

---------------------------------------
MP2 TOTAL ENERGY:      -56.408767790 Eh
---------------------------------------

The final MP2 gradient
  0:  -0.00003155   0.00172872  -0.00065611
  1:  -0.00014721  -0.00081964  -0.00043018
  2:  -0.00034416  -0.00045534   0.00054946
  3:   0.00052292  -0.00045374   0.00053683

-----------------------------------
NORM OF THE MP2 GRADIENT:  0.002386
-----------------------------------

Maximum memory used throughout the entire MP2-calculation: 13.5 MB

-------------------------   --------------------
FINAL SINGLE POINT ENERGY       -56.408767789953
-------------------------   --------------------

------------------------------------------------------------------------------
                         ORCA GEOMETRY RELAXATION STEP
------------------------------------------------------------------------------

Reading the OPT-File                    .... done
Getting information on internals        .... done
Copying old internal coords+grads       .... done
Making the new internal coordinates     .... (2022 redundants) done
Validating the new internal coordinates .... (2022 redundants) done
Calculating the B-matrix                .... done
Calculating the G,G- and P matrices     .... done
Transforming gradient to internals      .... done
Projecting the internal gradient        .... done
Number of atoms                         ....   4
Number of internal coordinates          ....   7
Current Energy                          ....   -56.408767790 Eh
Current gradient norm                   ....     0.002386140 Eh/bohr
Maximum allowed component of the step   ....  0.300
Current trust radius                    ....  0.300
Updating the Hessian (BFGS)             .... done
Forming the augmented Hessian           .... done
Diagonalizing the augmented Hessian     .... done
Last element of RFO vector              ....  0.999923036
Lowest eigenvalues of augmented Hessian:
 -0.000018229  0.107206992  0.295313412  0.299205688  0.414134437
Length of the computed step             ....  0.012407506
The final length of the internal step   ....  0.012407506
Converting the step to Cartesian space:
 Initial RMS(Int)=    0.0046895964
Transforming coordinates:
 Iter   0:  RMS(Cart)=    0.0022540203 RMS(Int)=    0.0046885866
done
Storing new coordinates                 .... done
The predicted energy change is          ....    -0.000009116
Previously predicted energy change      ....    -0.000124086
Actually observed energy change         ....    -0.000124296
Ratio of predicted to observed change   ....     1.001687284
New trust radius                        ....     0.450000000

                                .--------------------.
          ----------------------|Geometry convergence|-------------------------
          Item                value                   Tolerance       Converged
          ---------------------------------------------------------------------
          Energy change      -0.0001242957            0.0000050000      NO
          RMS gradient        0.0006175618            0.0001000000      NO
          MAX gradient        0.0011030358            0.0003000000      NO
          RMS step            0.0046895964            0.0020000000      NO
          MAX step            0.0096215875            0.0040000000      NO
          -------------------------------------------------------------------------
          ........................................................
          Max(Bonds)      0.0002      Max(Angles)    0.30
          Max(Dihed)        0.00      Max(Improp)    0.55
          ---------------------------------------------------------------------

The optimization has not yet converged - more geometry cycles are needed


    ---------------------------------------------------------------------------
                         Redundant Internal Coordinates
                            (Angstroem and degrees)

        Definition                    Value    dE/dq     Step     New-Value
    ----------------------------------------------------------------------------
     1. B(H   1,N   0)                1.0142 -0.000367 -0.0001    1.0141   
     2. B(H   2,N   0)                1.0143 -0.000276 -0.0001    1.0141   
     3. B(H   3,N   0)                1.0143 -0.000283 -0.0002    1.0141   
     4. A(H   1,N   0,H   3)          105.27 -0.000599    0.30    105.57   
     5. A(H   2,N   0,H   3)          105.41 -0.000824    0.22    105.64   
     6. A(H   1,N   0,H   2)          105.36 -0.000352    0.25    105.60   
     7. I(H   1,H   3,H   2,N   0)     64.16  0.001103   -0.55     63.61   
    ----------------------------------------------------------------------------

Geometry step timings:
Preparation and reading OPT file:      0.000 s ( 0.623 %)
Internal coordinates            :      0.000 s ( 0.685 %)
B/P matrices and projection     :      0.000 s ( 3.114 %)
Hessian update/contruction      :      0.000 s ( 3.799 %)
Making the step                 :      0.000 s ( 1.682 %)
Converting the step to Cartesian:      0.000 s ( 0.654 %)
Storing new data                :      0.000 s ( 0.623 %)
Checking convergence            :      0.000 s ( 1.464 %)
Final printing                  :      0.003 s (87.356 %)
Total time                      :      0.003 s

Time for energy+gradient        :      4.936 s
Time for complete geometry iter :      5.000 s

         *************************************************************
         *                GEOMETRY OPTIMIZATION CYCLE   3            *
         *************************************************************
---------------------------------
CARTESIAN COORDINATES (ANGSTROEM)
---------------------------------
  N     -3.354852   -0.354136   -0.091425
  H     -3.194827   -0.448067    0.905533
  H     -2.590571   -0.848846   -0.538157
  H     -4.185910   -0.901637   -0.286431

----------------------------
CARTESIAN COORDINATES (A.U.)
----------------------------
  NO LB      ZA    FRAG     MASS         X           Y           Z
   0 N     7.0000    0    14.007   -6.339752   -0.669220   -0.172768
   1 H     1.0000    0     1.008   -6.037348   -0.846725    1.711210
   2 H     1.0000    0     1.008   -4.895470   -1.604087   -1.016969
   3 H     1.0000    0     1.008   -7.910223   -1.703848   -0.541277

--------------------------------
INTERNAL COORDINATES (ANGSTROEM)
--------------------------------
 N      0   0   0     0.000000000000     0.00000000     0.00000000
 H      1   0   0     1.014079130704     0.00000000     0.00000000
 H      1   2   0     1.014116985177   105.60254311     0.00000000
 H      1   2   3     1.014121477779   105.56638412   111.60993587

---------------------------
INTERNAL COORDINATES (A.U.)
---------------------------
 N      0   0   0     0.000000000000     0.00000000     0.00000000
 H      1   0   0     1.916331835156     0.00000000     0.00000000
 H      1   2   0     1.916403369742   105.60254311     0.00000000
 H      1   2   3     1.916411859530   105.56638412   111.60993587

------------------------------------------------------------------------------
                   ___                                                        
                  /   \      - P O W E R E D   B Y -                         
                 /     \                                                     
                 |  |  |   _    _      __       _____    __    __             
                 |  |  |  | |  | |    /  \     |  _  \  |  |  /  |          
                  \  \/   | |  | |   /    \    | | | |  |  | /  /          
                 / \  \   | |__| |  /  /\  \   | |_| |  |  |/  /          
                |  |  |   |  __  | /  /__\  \  |    /   |      \           
                |  |  |   | |  | | |   __   |  |    \   |  |\   \          
                \     /   | |  | | |  |  |  |  | |\  \  |  | \   \       
                 \___/    |_|  |_| |__|  |__|  |_| \__\ |__|  \__/        
                                                                              
                      - O R C A' S   B I G   F R I E N D -                    
                                      &                                       
                       - I N T E G R A L  F E E D E R -                       
                                                                              
 v1 FN, 2020, v2 2021, v3 2022-2024                                           
------------------------------------------------------------------------------


----------------------
SHARK INTEGRAL PACKAGE
----------------------

Number of atoms                             ...      4
Number of basis functions                   ...     36
Number of shells                            ...     20
Maximum angular momentum                    ...      2
Integral batch strategy                     ... SHARK/LIBINT Hybrid
RI-J (if used) integral strategy            ... SPLIT-RIJ (Revised 2003 algorithm where possible)
Printlevel                                  ...      1
Contraction scheme used                     ... SEGMENTED contraction
Prescreening option                         ... SCHWARTZ
   Thresh                                   ... 2.500e-11
   Tcut                                     ... 2.500e-12
   Tpresel                                  ... 2.500e-12 
Coulomb Range Separation                    ... NOT USED
Exchange Range Separation                   ... NOT USED
Multipole approximations                    ... NOT USED
Finite Nucleus Model                        ... NOT USED
CABS basis                                  ... NOT available
Auxiliary Coulomb fitting basis             ... NOT available
Auxiliary J/K fitting basis                 ... NOT available
Auxiliary Correlation fitting basis         ... NOT available
Auxiliary 'external' fitting basis          ... NOT available

Checking pre-screening integrals            ... done (  0.0 sec) Dimension = 20
   => SHARK Basis and OBASIS are compatible. Storing Pre-screening
Shell pair information
Shell pair cut-off parameter TPreSel        ...   2.5e-12
Total number of shell pairs                 ...       210
Shell pairs after pre-screening             ...       210
Total number of primitive shell pairs       ...       660
[...]
g-Tensor (aka g-matrix)                 ...  NO
Zero-Field splitting spin-orbit         ...  NO
Zero-field splitting spin-spin          ...  NO
Hyperfine couplings                     ...  NO (   0 nuclei)
Quadrupole couplings                    ...  NO (   0 nuclei)
Contact density                         ...  NO (   0 nuclei)

NMR properties:
Chemical shifts                         ...  NO (   0 nuclei)
Spin-rotation constants                 ...  NO (   0 nuclei)
Spin-spin couplings                     ...  NO (   0 nuclei,    0 pairs)

Choice of magnetic origin               ... GIAO
Position of magnetic origin             ...     0.000000     0.000000     0.000000

Properties with geometric perturbations:
SCF Hessian                             ...  NO
IR spectrum                             ...  NO
VCD spectrum                            ...  NO
X-ray spectroscopy properties:
SCF XES/XAS/RIXS spectra                ...  NO

SCF SOC stabilization energy            ...  NO
Diagonal Born-Oppenheimer correction    ...  NO

-------------
DIPOLE MOMENT
-------------

Method             : SCF
Type of density    : Electron Density
Multiplicity       :   1
Irrep              :   0
Energy             :   -56.2099357499105068 Eh
Basis              : AO
                                X                 Y                 Z
Electronic contribution:     -0.015526593       0.188121923      -0.058685400
Nuclear contribution   :      0.071224410      -0.864496747       0.269774360
                        -----------------------------------------
Total Dipole Moment    :      0.055697817      -0.676374824       0.211088960
                        -----------------------------------------
Magnitude (a.u.)       :      0.710734619
Magnitude (Debye)      :      1.806543833



--------------------
Rotational spectrum 
--------------------
 
Rotational constants in cm-1:             9.891158             9.890050             6.380345 
Rotational constants in MHz :        296529.468093        296496.246528        191277.939813 

Dipole components along the rotational axes: 
x,y,z [a.u.] :     0.000007     0.000065     0.710735 
x,y,z [Debye]:     0.000018     0.000165     1.806544 

 

-------------
DIPOLE MOMENT
-------------

Method             : MP2
Type of density    : Electron Density
Multiplicity       :   1
Level              : Unrelaxed density
Irrep              :   0
Energy             :     0.0000000000000000 Eh
Basis              : AO
                                X                 Y                 Z
Electronic contribution:     -0.016040587       0.194359559      -0.060631850
Nuclear contribution   :      0.071224410      -0.864496747       0.269774360
                        -----------------------------------------
Total Dipole Moment    :      0.055183823      -0.670137188       0.209142510
                        -----------------------------------------
Magnitude (a.u.)       :      0.704180158
Magnitude (Debye)      :      1.789883718



--------------------
Rotational spectrum 
--------------------
 
Rotational constants in cm-1:             9.891158             9.890050             6.380345 
Rotational constants in MHz :        296529.468093        296496.246528        191277.939813 

Dipole components along the rotational axes: 
x,y,z [a.u.] :     0.000007     0.000064     0.704180 
x,y,z [Debye]:     0.000018     0.000163     1.789884 

 

-------------
DIPOLE MOMENT
-------------

Method             : MP2
Type of density    : Electron Density
Multiplicity       :   1
Level              : Relaxed density
Irrep              :   0
Energy             :     0.0000000000000000 Eh
Basis              : AO
                                X                 Y                 Z
Electronic contribution:     -0.017211975       0.208583156      -0.065070814
Nuclear contribution   :      0.071224410      -0.864496747       0.269774360
                        -----------------------------------------
Total Dipole Moment    :      0.054012435      -0.655913591       0.204703546
                        -----------------------------------------
Magnitude (a.u.)       :      0.689234013
Magnitude (Debye)      :      1.751893635



--------------------
Rotational spectrum 
--------------------
 
Rotational constants in cm-1:             9.891158             9.890050             6.380345 
Rotational constants in MHz :        296529.468093        296496.246528        191277.939813 

Dipole components along the rotational axes: 
x,y,z [a.u.] :     0.000007     0.000063     0.689234 
x,y,z [Debye]:     0.000017     0.000159     1.751894 

 

Dipole moment calculation done in   0.0 sec 

Maximum memory used throughout the entire PROP-calculation: 1.8 MB

----------------------------------------------------------------------------
                           ORCA NUMERICAL FREQUENCIES
----------------------------------------------------------------------------

Number of atoms                ... 4
Central differences            ... used
Translation invariance         ... used
Number of displacements        ... 24 - 6
Numerical increment            ... 5.000e-03 bohr
IR-spectrum generation         ... on
Raman-spectrum generation      ... off
Surface Crossing Hessian       ... off

The output will be reduced. Please look at the following files:
SCF program output             ... >/home/vivek/mm/lab5/6-311/nh3/monomer/monomer.lastscf
Integral program output        ... >/home/vivek/mm/lab5/6-311/nh3/monomer/monomer.lastint
Gradient program output        ... >/home/vivek/mm/lab5/6-311/nh3/monomer/monomer.lastgrad
Dipole moment program output   ... >/home/vivek/mm/lab5/6-311/nh3/monomer/monomer.lastmom

	<< Calculating gradient on displaced geometry   1 (of  18) >>
	<< Calculating gradient on displaced geometry   2 (of  18) >>
	<< Calculating gradient on displaced geometry   3 (of  18) >>
	<< Calculating gradient on displaced geometry   4 (of  18) >>
	<< Calculating gradient on displaced geometry   5 (of  18) >>
	<< Calculating gradient on displaced geometry   6 (of  18) >>
	<< Calculating gradient on displaced geometry   7 (of  18) >>
	<< Calculating gradient on displaced geometry   8 (of  18) >>
	<< Calculating gradient on displaced geometry   9 (of  18) >>
	<< Calculating gradient on displaced geometry  10 (of  18) >>
	<< Calculating gradient on displaced geometry  11 (of  18) >>
	<< Calculating gradient on displaced geometry  12 (of  18) >>
	<< Calculating gradient on displaced geometry  13 (of  18) >>
	<< Calculating gradient on displaced geometry  14 (of  18) >>
	<< Calculating gradient on displaced geometry  15 (of  18) >>
	<< Calculating gradient on displaced geometry  16 (of  18) >>
	<< Calculating gradient on displaced geometry  17 (of  18) >>
	<< Calculating gradient on displaced geometry  18 (of  18) >>

-----------------------
VIBRATIONAL FREQUENCIES
-----------------------

Scaling factor for frequencies =  1.000000000  (already applied!)

     0:       0.00 cm**-1
     1:       0.00 cm**-1
     2:       0.00 cm**-1
     3:       0.00 cm**-1
     4:       0.00 cm**-1
     5:       0.00 cm**-1
     6:    1128.63 cm**-1
     7:    1676.03 cm**-1
     8:    1676.48 cm**-1
     9:    3525.56 cm**-1
    10:    3667.86 cm**-1
    11:    3668.01 cm**-1


------------
NORMAL MODES
------------

These modes are the Cartesian displacements weighted by the diagonal matrix
M(i,i)=1/sqrt(m[i]) where m[i] is the mass of the displaced atom
Thus, these vectors are normalized but *not* orthogonal

                  0          1          2          3          4          5    
      0       0.000000   0.000000   0.000000   0.000000   0.000000   0.000000
      1       0.000000   0.000000   0.000000   0.000000   0.000000   0.000000
      2       0.000000   0.000000   0.000000   0.000000   0.000000   0.000000
      3       0.000000   0.000000   0.000000   0.000000   0.000000   0.000000
      4       0.000000   0.000000   0.000000   0.000000   0.000000   0.000000
      5       0.000000   0.000000   0.000000   0.000000   0.000000   0.000000
      6       0.000000   0.000000   0.000000   0.000000   0.000000   0.000000
      7       0.000000   0.000000   0.000000   0.000000   0.000000   0.000000
      8       0.000000   0.000000   0.000000   0.000000   0.000000   0.000000
      9       0.000000   0.000000   0.000000   0.000000   0.000000   0.000000
     10       0.000000   0.000000   0.000000   0.000000   0.000000   0.000000
     11       0.000000   0.000000   0.000000   0.000000   0.000000   0.000000
                  6          7          8          9         10         11    
      0      -0.008979  -0.065631   0.004127   0.003229  -0.032240   0.071914
      1       0.109437  -0.006110  -0.019272  -0.036966   0.019050   0.015119
      2      -0.034126  -0.002429  -0.062948   0.011578   0.069626   0.029167
      3       0.011961   0.733953  -0.150792  -0.090097  -0.119764  -0.050651
      4      -0.571721  -0.034058  -0.288701   0.004020   0.052727   0.033880
      5      -0.042155  -0.128535  -0.038187  -0.570375  -0.676948  -0.427459
      6      -0.125691   0.237012   0.411987  -0.445790   0.550304  -0.275616
      7      -0.480477  -0.027662   0.309211   0.240088  -0.338742   0.185291
      8       0.286677   0.495989   0.309082   0.279053  -0.315302   0.183599
      9       0.238501  -0.058975  -0.318549   0.491022   0.017466  -0.673039
     10      -0.468526   0.146622   0.247285   0.269571   0.021306  -0.429261
     11       0.229681  -0.333707   0.603825   0.130439   0.024743  -0.161437


-----------
IR SPECTRUM
-----------

 Mode   freq       eps      Int      T**2         TX        TY        TZ
       cm**-1   L/(mol*cm) km/mol    a.u.
----------------------------------------------------------------------------
  6:   1128.63   0.032914  166.33  0.009101  ( 0.007431 -0.090771  0.028391)
  7:   1676.03   0.003313   16.74  0.000617  ( 0.024720  0.002178  0.000976)
  8:   1676.48   0.003321   16.78  0.000618  (-0.001495  0.007131  0.023770)
  9:   3525.56   0.000051    0.26  0.000005  ( 0.000105 -0.002031  0.000638)
 10:   3667.86   0.000059    0.30  0.000005  ( 0.000915 -0.000533 -0.001981)
 11:   3668.01   0.000056    0.28  0.000005  (-0.001978 -0.000488 -0.000792)

* The epsilon (eps) is given for a Dirac delta lineshape.
** The dipole moment derivative (T) already includes vibrational overlap.

The first frequency considered to be a vibration is 6
The total number of vibrations considered is 6


--------------------------
THERMOCHEMISTRY AT 298.15K
--------------------------

Temperature         ...   298.15 K
Pressure            ...     1.00 atm
Total Mass          ...    17.03 AMU
Quasi RRHO          ...     True
Cut-Off Frequency   ...     1.00 cm^-1

Throughout the following assumptions are being made:
  (1) The electronic state is orbitally nondegenerate
  (2) There are no thermally accessible electronically excited states
  (3) Hindered rotations indicated by low frequency modes are not
      treated as such but are treated as vibrations and this may
      cause some error
  (4) All equations used are the standard statistical mechanics
      equations for an ideal gas
  (5) All vibrations are strictly harmonic

freq.    1128.63  E(vib)   ...       0.01 
freq.    1676.03  E(vib)   ...       0.00 
freq.    1676.48  E(vib)   ...       0.00 
freq.    3525.56  E(vib)   ...       0.00 
freq.    3667.86  E(vib)   ...       0.00 
freq.    3668.01  E(vib)   ...       0.00 

------------
INNER ENERGY
------------

The inner energy is: U= E(el) + E(ZPE) + E(vib) + E(rot) + E(trans)
    E(el)   - is the total energy from the electronic structure calculation
              = E(kin-el) + E(nuc-el) + E(el-el) + E(nuc-nuc)
    E(ZPE)  - the the zero temperature vibrational energy from the frequency calculation
    E(vib)  - the the finite temperature correction to E(ZPE) due to population
              of excited vibrational states
    E(rot)  - is the rotational thermal energy
    E(trans)- is the translational thermal energy

Summary of contributions to the inner energy U:
Electronic energy                ...    -56.40878954 Eh
Zero point energy                ...      0.03495293 Eh      21.93 kcal/mol
Thermal vibrational correction   ...      0.00002696 Eh       0.02 kcal/mol
Thermal rotational correction    ...      0.00141627 Eh       0.89 kcal/mol
Thermal translational correction ...      0.00141627 Eh       0.89 kcal/mol
-----------------------------------------------------------------------
Total thermal energy                    -56.37097710 Eh


Summary of corrections to the electronic energy:
(perhaps to be used in another calculation)
Total thermal correction                  0.00285951 Eh       1.79 kcal/mol
Non-thermal (ZPE) correction              0.03495293 Eh      21.93 kcal/mol
-----------------------------------------------------------------------
Total correction                          0.03781244 Eh      23.73 kcal/mol


--------
ENTHALPY
--------

The enthalpy is H = U + kB*T
                kB is Boltzmann's constant
Total thermal energy              ...    -56.37097710 Eh 
Thermal Enthalpy correction       ...      0.00094421 Eh       0.59 kcal/mol
-----------------------------------------------------------------------
Total Enthalpy                    ...    -56.37003289 Eh


Note: Rotational entropy computed according to Herzberg 
Infrared and Raman Spectra, Chapter V,1, Van Nostrand Reinhold, 1945 
Point Group:  Cs, Symmetry Number:   1  
Rotational constants in cm-1:     9.891167     9.890059     6.380351 

Vibrational entropy computed according to the QRRHO of S. Grimme
Chem.Eur.J. 2012 18 9955 using a reference frequency of 100.0 cm-1


-------
ENTROPY
-------

The entropy contributions are T*S = T*(S(el)+S(vib)+S(rot)+S(trans))
     S(el)   - electronic entropy
     S(vib)  - vibrational entropy
     S(rot)  - rotational entropy
     S(trans)- translational entropy
The entropies will be listed as multiplied by the temperature to get
units of energy

Electronic entropy                ...      0.00000000 Eh      0.00 kcal/mol
Vibrational entropy               ...      0.00003163 Eh      0.02 kcal/mol
Rotational entropy                ...      0.00647225 Eh      4.06 kcal/mol
Translational entropy             ...      0.01636425 Eh     10.27 kcal/mol
-----------------------------------------------------------------------
Final entropy term                ...      0.02286813 Eh     14.35 kcal/mol

In case the symmetry of your molecule has not been determined correctly
or in case you have a reason to use a different symmetry number we print 
out the resulting rotational entropy values for sn=1,12:

 non-linear molecules -----------------------------------
|  sn= 1 | S(rot)=       0.00647225 Eh      4.06 kcal/mol|
|  sn= 2 | S(rot)=       0.00581779 Eh      3.65 kcal/mol|
|  sn= 3 | S(rot)=       0.00543496 Eh      3.41 kcal/mol|
|  sn= 4 | S(rot)=       0.00516334 Eh      3.24 kcal/mol|
|  sn= 5 | S(rot)=       0.00495265 Eh      3.11 kcal/mol|
|  sn= 6 | S(rot)=       0.00478050 Eh      3.00 kcal/mol|
|  sn= 7 | S(rot)=       0.00463496 Eh      2.91 kcal/mol|
|  sn= 8 | S(rot)=       0.00450888 Eh      2.83 kcal/mol|
|  sn= 9 | S(rot)=       0.00439767 Eh      2.76 kcal/mol|
|  sn=10 | S(rot)=       0.00429819 Eh      2.70 kcal/mol|
|  sn=11 | S(rot)=       0.00420820 Eh      2.64 kcal/mol|
|  sn=12 | S(rot)=       0.00412605 Eh      2.59 kcal/mol|
 linear molecules ---------------------------------------
|  Dinfh | S(rot)=       0.00357603 Eh      2.24 kcal/mol|
|  Cinfv | S(rot)=       0.00423048 Eh      2.65 kcal/mol|
 --------------------------------------------------------


-------------------
GIBBS FREE ENERGY
-------------------

The Gibbs free energy is G = H - T*S

Total enthalpy                    ...    -56.37003289 Eh 
Total entropy correction          ...     -0.02286813 Eh    -14.35 kcal/mol
-----------------------------------------------------------------------
Final Gibbs free energy         ...    -56.39290103 Eh

For completeness - the Gibbs free energy minus the electronic energy
G-E(el)                           ...      0.01588851 Eh      9.97 kcal/mol



--------------------------------
SUGGESTED CITATIONS FOR THIS RUN
--------------------------------

Below you find a list of papers that are relevant to this ORCA run
We neither can nor want to force you to cite these papers, but we appreciate if you do
You receive ORCA, which is the product of decades of hard work by many enthusiastic individuals, for free
The only thing we kindly ask in return is that you cite our papers,
We deeply appreciate it, if you show your appreciation for ORCA by not just citing the generic ORCA reference.

Please note that relegating all ORCA citations to the supporting information does *not* help us.
SI sections are not indexed - citations you put there will not count into any citation statistics
But we need these citations in order to attract the funding resources that allow us to do what we are doing

Therefore, if you are a happy ORCA user, please consider citing a few of the papers listed below in the main body of your paper

In addition to the list printed below, the program has created the file /home/vivek/mm/lab5/6-311/nh3/monomer/monomer.bibtex that contains the list in bibtex format
You can import this file easily into all common literature databanks and citation aid programs


List of essential papers. We consider these as the minimum necessary citations

  1. Neese, F.
     Software update: the ORCA program system, version 6.0
     WIRES Comput. Molec. Sci. 2025 15(1), e70019
     doi.org/10.1002/wcms.7019

List of papers to cite with high priority. The work reported in these papers was absolutely
necessary for this run to complete.
Our perspective: the developers of density functionals and basis sets usually get cited in chemistry papers
Good! But without the algorithms to do something with them, the functionals or basis sets would not do anything.
Hence, in our opinion, the algorithm design and method developments papers are equally worthy of getting cited

  1. Neese, F.
     The SHARK Integral Generation and Digestion System
     J. Comp. Chem. 2022 44(3), 381
     doi.org/10.1002/jcc.26942

List of suggested additional citations. These are papers that are important in the 'surrounding' of 
of this run, or papers that preceded the highly important papers. If you like your results we are grateful for a citation.

  1. Neese, F.
     The ORCA program system
     WIRES Comput. Molec. Sci. 2012 2(1), 73-78
     doi.org/10.1002/wcms.81
  2. Neese, F.
     Software update: the ORCA program system, version 4.0
     WIRES Comput. Molec. Sci. 2018 8(1), 1-6
     doi.org/10.1002/wcms.1327
  3. Neese, F.; Wennmohs, F.; Becker, U.; Riplinger, C.
     The ORCA quantum chemistry program package
     J. Chem. Phys. 2020 152(22), 224108
     doi.org/10.1063/5.0004608
  4. Neese, F.
     Software update: The ORCA program system—Version 5.0
     WIRES Comput. Molec. Sci. 2022 12(1), e1606
     doi.org/10.1002/wcms.1606

List of optional additional citations

  1. Neese, F.
     Approximate second-order SCF convergence for spin unrestricted wavefunctions
     Chem. Phys. Lett. 2000 325(1-3), 93-98
     doi.org/10.1016/s0009-2614(00)00662-x

Timings for individual modules:

Sum of individual times          ...      115.974 sec (=   1.933 min)
Startup calculation              ...        0.992 sec (=   0.017 min)   0.9 %
SCF iterations                   ...       18.571 sec (=   0.310 min)  16.0 %
Property calculations            ...        0.055 sec (=   0.001 min)   0.0 %
MP2 module                       ...        6.588 sec (=   0.110 min)   5.7 %
Geometry relaxation              ...        0.253 sec (=   0.004 min)   0.2 %
Numerical frequency calculation  ...       89.515 sec (=   1.492 min)  77.2 %
                             ****ORCA TERMINATED NORMALLY****
TOTAL RUN TIME: 0 days 0 hours 1 minutes 56 seconds 257 msec
