
                                 *****************
                                 * O   R   C   A *
                                 *****************

                                            #,                                       
                                            ###                                      
                                            ####                                     
                                            #####                                    
                                            ######                                   
                                           ########,                                 
                                     ,,################,,,,,                         
                               ,,#################################,,                 
                          ,,##########################################,,             
                       ,#########################################, ''#####,          
                    ,#############################################,,   '####,        
                  ,##################################################,,,,####,       
                ,###########''''           ''''###############################       
              ,#####''   ,,,,##########,,,,          '''####'''          '####       
            ,##' ,,,,###########################,,,                        '##       
           ' ,,###''''                  '''############,,,                           
         ,,##''                                '''############,,,,        ,,,,,,###''
      ,#''                                            '''#######################'''  
     '                                                          ''''####''''         
             ,#######,   #######,   ,#######,      ##                                
            ,#'     '#,  ##    ##  ,#'     '#,    #''#        ,####,    ,#,          
            ##       ##  ##   ,#'  ##            #'  '#       #'       ,# #          
            ##       ##  #######   ##           ,######,      #####,      #          
            '#,     ,#'  ##    ##  '#,     ,#' ,#      #,     #,   #      #          
             '#######'   ##     ##  '#######'  #'      '#     '####' #    #          



                #########################################################
                #                        -***-                          #
                #          Department of theory and spectroscopy        #
                #                                                       #
                #                      Frank Neese                      #
                #                                                       #
                #     Directorship, Architecture, Infrastructure        #
                #                    SHARK, DRIVERS                     #
                #        Core code/Algorithms in most modules           #
                #                                                       #
                #        Max Planck Institute fuer Kohlenforschung      #
                #                Kaiser Wilhelm Platz 1                 #
                #                 D-45470 Muelheim/Ruhr                 #
                #                      Germany                          #
                #                                                       #
                #                  All rights reserved                  #
                #                        -***-                          #
                #########################################################


                         Program Version 6.1.0  -  RELEASE   -
                                (GIT: $679e74b$)
                          ($2025-06-10 18:02:51 +0200$)


 With contributions from (in alphabetic order):
[Max-Planck-Institut fuer Kohlenforschung]                               
  Daniel Aravena         : Magnetic Suceptibility                        
  Michael Atanasov       : Ab Initio Ligand Field Theory (pilot matlab implementation)
  Alexander A. Auer      : GIAO ZORA, VPT2 properties, NMR spectrum      
  Ute Becker             : All parallelization in ORCA, NUMFREQ, NUMCALC 
  Giovanni Bistoni       : ED, misc. LED, open-shell LED, HFLD           
  Dmytro Bykov           : pre 5.0 version of the SCF Hessian            
  Marcos Casanova-Páez   : Triplet and SCS-CIS(D). UHF-(DLPNO)-IP/EA/STEOM-CCSD. UHF-CVS-IP/STEOM-CCSD   
  Vijay G. Chilkuri      : MRCI spin determinant printing, contributions to CSF-ICE 
  Pauline Colinet        : FMM embedding                                 
  Dipayan Datta          : RHF DLPNO-CCSD density                        
  Achintya Kumar Dutta   : EOM-CC, STEOM-CC                              
  Nicolas Foglia         : Exact transition moments, OPA infrastructure, MCD improvements    
  Dmitry Ganyushin       : Spin-Orbit,Spin-Spin,Magnetic field MRCI      
  Miquel Garcia-Rates    : C-PCM and meta-GGA Hessian, CCSD/C-PCM, Gaussian charge scheme 
  Tiago L. C. Gouveia    : GS-ROHF, GS-ROCIS                             
  Yang Guo               : DLPNO-NEVPT2, F12-NEVPT2, CIM, IAO-localization        
  Andreas Hansen         : Spin unrestricted coupled pair/coupled cluster methods 
  Ingolf Harden          : AUTO-CI MPn and infrastructure                
  Benjamin Helmich-Paris : MC-RPA, TRAH-(SCF,CASSCF), AVAS, COSX integrals, SCF dyn. polar., MC-PDFT, srDFT 
  Lee Huntington         : MR-EOM, pCC                                   
  Robert Izsak           : Overlap fitted RIJCOSX, COSX-SCS-MP3, EOM     
  Riya Kayal             : Wick's Theorem for AUTO-CI, AUTO-CI UHF-CCSDT 
  Emily Kempfer          : AUTO-CI RHF CISDT and CCSDT, approximate NEVPT4
  Christian Kollmar      : KDIIS, OOCD, Brueckner-CCSD(T), CCSD density, CASPT2, CASPT2-K, improved NEVPT2 
  Axel Koslowski         : Symmetry handling                             
  Simone Kossmann        : meta-GGA functionals, TD-DFT gradient, OOMP2, (MP2 Hessian; deprecated post 5.0) 
  Lucas Lang             : DCDCAS, Hyperfine gauge corrections, ICE-SOC+SSC
  Marvin Lechner         : AUTO-CI (C++ implementation), FIC-MRCC        
  Spencer Leger          : CASSCF response                               
  Dagmar Lenk            : GEPOL surface, SMD, ORCA-2-JSON               
  Dimitrios Liakos       : Extrapolation schemes; Compound Job, Property file
  Dimitrios Manganas     : Further ROCIS development; embedding schemes. LFT, Crystal Embedding 
  Dimitrios Pantazis     : SARC Basis sets                               
  Anastasios Papadopoulos: AUTO-CI, single reference methods and gradients 
  Taras Petrenko         : pre 6.0 DFT Hessian and TD-DFT gradient,  ECA, NRVS 
  Petra Pikulova         : Analytic Raman intensities                    
  Peter Pinski           : DLPNO-MP2, DLPNO-MP2 Gradient                 
  Shashank Vittal Rao    : ES-AILFT, MagRelax                            
  Christoph Reimann      : Effective Core Potentials                     
  Marius Retegan         : Local ZFS, SOC                                
  Christoph Riplinger    : Optimizer, TS searches, QM/MM, DLPNO-CCSD(T), (RO)-DLPNO pert. Triples 
  Michael Roemelt        : Original ROCIS implementation, recursive CI coupling coefficients
  Masaaki Saitow         : Open-shell DLPNO-CCSD energy and density      
  Barbara Sandhoefer     : DKH picture change effects                    
  Yorick L. A. Schmerwitz: GMF and freeze-and-release deltaSCF, NEB S-IDPP initial path                    
  Kantharuban Sivalingam : CASSCF convergence/infrastructure, NEVPT2, NEVPT3, NEVPT4(SD), FIC-MRCI and CEPA variants
  Bernardo de Souza      : ESD, SOC TD-DFT                               
  Georgi L. Stoychev     : AutoAux, RI-MP2 NMR, DLPNO-MP2 response, X2C  
  Van Anh Tran           : RI-MP2 g-tensors                              
  Willem Van den Heuvel  : Paramagnetic NMR                              
  Zikuan Wang            : NOTCH, Electric field optimization            
  Frank Wennmohs         : Technical directorship and infrastructure     
  Hang Xu                : AUTO-CI-Response properties                   
                                                                         
[FACCTs GmbH]                                                            
  Markus Bursch, Nicolas Foglia, Miquel Garcia-Rates, Ingolf Harden, Hagen Neugebauer, Anastasios Papadopoulos, 
  Christoph Riplinger, Bernardo de Souza, Georgi L. Stoychev                                                    
                                                                 
  APM, various basis sets, CI-OPT, improved COSX, DLPNO-Multilevel,           
  DOCKER, DRACO, updates on ESD, Fragmentator, GOAT, IRC, LR-CPCM, L-BFGS, MBIS, meta-GGA TD-DFT gradient, ML-optimized integration grids, 
  MM, NACMEs, nearIR, NEB, NEB-TS, NL-DFT gradient (VV10), 2- and 3-layer-ONIOM, interface openCOSMO-RS, QMMM,   
  Crystal-QMMM, RESP, rigid body optimization, SF, symmetry and pop. for TD-DFT, various functionals, SOLVATOR                                   
                                                                         
[Other institutions]                                                     
  V. Asgeirsson          : NEB                                           
  Christoph Bannwarth    : sTDA-DFT, sTD-DFT, PBEh-3c, B97-3c, D3        
  Giovanni Bistoni       : ETS/NOCV, ADLD/ADEX, COVALED                  
  Martin Brehm           : Molecular dynamics                            
  Ronald Cardenas        : ETS/NOCV                                      
  Martina Colucci        : COVALED                                       
  Sebastian Ehlert       : rSCAN, r2SCAN, r2SCAN-3c, D4, dhf basis sets  
  Marvin Friede          : D4 for Fr, Ra, Ac-Lr                          
  Lars Goerigk           : TD-DFT with DH, B97 family of functionals     
  Stefan Grimme          : VdW corrections, initial TS optimization, DFT functionals, gCP, sTDA/sTD-DF 
  Waldemar Hujo          : DFT-NL                                        
  H. Jonsson             : NEB                                           
  Holger Kruse           : gCP                                           
  Marcel Mueller         : wB97X-3c, vDZP basis set                      
  Hagen Neugebauer       : wr2SCAN, Native XTB                           
  Gianluca Regni         : ADLD/ADEX                                     
  Tobias Risthaus        : pre 6.0 range-separated hybrid DFT and stability analysis
  Lukas Wittmann         : regularized MP2, r2SCAN double-hybrids, wr2SCAN        
                                                                         
We gratefully acknowledge several colleagues who have allowed us to      
interface, adapt or use parts of their codes:                            
  Ed Valeev, F. Pavosevic, A. Kumar             : LibInt (2-el integral package), F12 methods 
  Garnet Chan, S. Sharma, J. Yang, R. Olivares  : DMRG                   
  Ulf Ekstrom                                   : XCFun DFT Library      
  Mihaly Kallay                                 : mrcc  (arbitrary order and MRCC methods)
  Frank Weinhold                                : gennbo (NPA and NBO analysis)           
  Simon Mueller                                 : openCOSMO-RS                            
  Christopher J. Cramer and Donald G. Truhlar   : smd solvation model                     
  S Lehtola, MJT Oliveira, MAL Marques          : LibXC Library                           
  Liviu Ungur et al                             : ANISO software                          


 Your calculation uses the libint2 library for the computation of 2-el integrals
 For citations please refer to: http://libint.valeyev.net

 Your ORCA version has been built with support for libXC version: 7.0.0
 For citations please refer to: https://libxc.gitlab.io

 This ORCA versions uses:
   CBLAS   interface :  Fast vector & matrix operations
   LAPACKE interface :  Fast linear algebra routines
   SCALAPACK package :  Parallel linear algebra routines
   Shared memory     :  Shared parallel matrices
   BLAS/LAPACK       :  OpenBLAS 0.3.29  USE64BITINT DYNAMIC_ARCH NO_AFFINITY Haswell SINGLE_THREADED
        Core in use  :  Haswell
   Copyright (c) 2011-2014, The OpenBLAS Project


  ***********************************
  * Starting time: Tue Aug 19 14:31:55 2025
  * Host name:     CHEMLAB02
  * Process ID:    3931291
  * Working dir.:  /home/vivek/mm/lab5
  ***********************************



***************************************
The coordinates will be read from file: /home/vivek/mm/lab5/6-311/water/dimer/dimer-input-coordinates.xyz
***************************************


================================================================================

----- Orbital basis set information -----
Your calculation utilizes the basis: 6-311G**
   H, Li - Ne  : R. Krishnan, J. S. Binkley, R. Seeger and J. A. Pople, J. Chem. Phys. 72, 650 (1980).
   Na - Ar     : A. D. McLean and G. S. Chandler J. Chem. Phys. 72, 5639, (1980).
   K  - Ca     : J.-P. Blaudeau, M. P. McGrath, L. A. Curtiss and L. Radom, J. Chem. Phys. 107, 5016 (1997).
   Ga - Kr     : L. A. Curtiss, M. P. McGrath, J.-P. Blandeau, N. E. Davis, R. C. Binning and L. Radom, J. Chem. Phys. 103, 6104 (1995).
   Pol./Diff.
   H, Li - Cl  : T. Clark, J. Chandrasekhar and P. v. R. Schleyer, J. Comp. Chem. 4, 294 (1983).
   H - Ne      : M. J. Frisch, J. A. Pople and J. S. Binkley, J. Chem. Phys. 80, 3265 (1984).

================================================================================
                                        WARNINGS
                       Please study these warnings very carefully!
================================================================================


WARNING: The frozen-core approximation for MP2-gradient calculations is turned on by default.

WARNING: Geometry Optimization
  ===> : Switching off AutoStart
         For restart on a previous wavefunction, please use MOREAD

WARNING: Post HF methods need fully converged wavefunctions
  ===> : Setting SCFConvForced true
         You can overwrite this default with %scf ConvForced false 


================================================================================
                                       INPUT FILE
================================================================================
NAME = /home/vivek/mm/lab5/6-311/water/dimer/dimer.inp
|  1> ! MP2 6-311G** opt numfreq
|  2> 
|  3> * xyzfile 0 1 /home/vivek/mm/lab5/6-311/water/dimer/dimer-input-coordinates.xyz
|  4> 
|  5>                          ****END OF INPUT****
================================================================================

                       *****************************
                       * Geometry Optimization Run *
                       *****************************

Geometry optimization settings:
Update method            Update   .... BFGS
Choice of coordinates    CoordSys .... (2022) Redundant Internals
Initial Hessian          InHess   .... Almloef's Model
Max. no of cycles        MaxIter  .... 50

Convergence Tolerances:
Energy Change            TolE     ....  5.0000e-06 Eh
Max. Gradient            TolMAXG  ....  3.0000e-04 Eh/bohr
RMS Gradient             TolRMSG  ....  1.0000e-04 Eh/bohr
Max. Displacement        TolMAXD  ....  4.0000e-03 bohr
RMS Displacement         TolRMSD  ....  2.0000e-03 bohr
Strict Convergence                .... False

------------------------------------------------------------------------------
                        ORCA OPTIMIZATION COORDINATE SETUP
------------------------------------------------------------------------------

The optimization will be done in redundant internal coordinates (2022)
Making redundant internal coordinates   ...  (2022 redundants) done
Evaluating the initial hessian          ...  (Almloef) done
Evaluating the coordinates              ...  done
Calculating the B-matrix                .... done
Calculating the G-matrix                .... done
The number of degrees of freedom        ....   32

    -----------------------------------------------------------------
                    Redundant Internal Coordinates


    -----------------------------------------------------------------
         Definition                    Initial Value    Approx d2E/dq
    -----------------------------------------------------------------
      1. B(H   1,O   0)                  0.9606         0.518886   
      2. B(H   2,O   0)                  0.9675         0.505759   
      3. B(O   3,H   2)                  1.9655         0.012936   
      4. B(H   4,O   3)                  0.9637         0.512928   
      5. B(H   4,H   2)                  2.2600         0.010000   
      6. B(H   5,H   2)                  2.3596         0.010000   
      7. B(H   5,O   3)                  0.9636         0.513216   
      8. A(H   1,O   0,H   2)          104.2052         0.320272   
      9. A(H   4,H   2,H   5)           38.4094         0.097031   
     10. A(O   3,H   2,H   4)           25.1462         0.108535   
     11. A(O   3,H   2,H   5)           23.5580         0.106983   
     12. A(O   0,H   2,H   4)          141.2611         0.133790   
     13. A(O   0,H   2,O   3)          165.1109         0.189287   
     14. A(O   0,H   2,H   5)          149.4461         0.130230   
     15. A(H   2,O   3,H   5)          101.8286         0.189620   
     16. A(H   4,O   3,H   5)          104.3694         0.320433   
     17. A(H   2,O   3,H   4)           94.7838         0.189607   
     18. A(H   2,H   4,O   3)           60.0701         0.133933   
     19. A(H   2,H   5,O   3)           54.6135         0.130366   
     20. D(H   5,H   2,O   0,H   1)    160.9814         0.357020   
     21. D(H   4,H   2,O   0,H   1)   -129.6118         0.357020   
     22. D(O   3,H   2,O   0,H   1)   -149.2812         0.357020   
     23. D(H   5,O   3,H   2,O   0)    -76.0668         0.010000   
     24. D(H   4,O   3,H   2,O   0)     29.7148         0.010000   
     25. D(H   5,O   3,H   2,H   4)   -105.7815         0.010000   
     26. D(H   4,O   3,H   2,H   5)    105.7815         0.010000   
     27. D(H   2,H   4,O   3,H   5)    103.5199         0.333842   
     28. D(O   3,H   4,H   2,H   5)    -38.2480         0.010000   
     29. D(O   3,H   4,H   2,O   0)   -168.2564         0.010000   
     30. D(H   2,H   5,O   3,H   4)    -98.1410         0.334326   
     31. D(O   3,H   5,H   2,H   4)     41.1612         0.010000   
     32. D(O   3,H   5,H   2,O   0)    150.6209         0.010000   
    -----------------------------------------------------------------

Number of atoms                         .... 6
Number of degrees of freedom            .... 32


         *************************************************************
         *                GEOMETRY OPTIMIZATION CYCLE   1            *
         *************************************************************
---------------------------------
CARTESIAN COORDINATES (ANGSTROEM)
---------------------------------
  O     -1.956517    1.819359   -0.393335
  H     -1.906175    1.150774    0.294514
  H     -1.336672    2.503963   -0.104830
  O     -0.403738    4.199866    0.236622
  H     -1.205023    4.735234    0.229519
  H      0.007898    4.374187   -0.616958

----------------------------
CARTESIAN COORDINATES (A.U.)
----------------------------
  NO LB      ZA    FRAG     MASS         X           Y           Z
   0 O     8.0000    0    15.999   -3.697281    3.438091   -0.743296
   1 H     1.0000    0     1.008   -3.602149    2.174647    0.556550
   2 H     1.0000    0     1.008   -2.525944    4.731805   -0.198100
   3 O     8.0000    0    15.999   -0.762954    7.936597    0.447151
   4 H     1.0000    0     1.008   -2.277163    8.948296    0.433727
   5 H     1.0000    0     1.008    0.014926    8.266016   -1.165882

--------------------------------
INTERNAL COORDINATES (ANGSTROEM)
--------------------------------
 O      0   0   0     0.000000000000     0.00000000     0.00000000
 H      1   0   0     0.960560759703     0.00000000     0.00000000
 H      1   2   0     0.967535824605   104.20516461     0.00000000
 O      3   1   2     1.965462100417   165.11088309   210.71883793
 H      4   3   1     0.963704559081    94.78376338    29.71477393
 H      4   3   1     0.963551893890   101.82859525   283.93323880

---------------------------
INTERNAL COORDINATES (A.U.)
---------------------------
 O      0   0   0     0.000000000000     0.00000000     0.00000000
 H      1   0   0     1.815196770830     0.00000000     0.00000000
 H      1   2   0     1.828377733261   104.20516461     0.00000000
 O      3   1   2     3.714185096389   165.11088309   210.71883793
 H      4   3   1     1.821137690674    94.78376338    29.71477393
 H      4   3   1     1.820849195272   101.82859525   283.93323880

---------------------
BASIS SET INFORMATION
---------------------
There are 2 groups of distinct atoms

 Group   1 Type O   : 11s5p1d contracted to 4s3p1d pattern {6311/311/1}
 Group   2 Type H   : 5s1p contracted to 3s1p pattern {311/1}

Atom   0O    basis set group =>   1
Atom   1H    basis set group =>   2
Atom   2H    basis set group =>   2
Atom   3O    basis set group =>   1
Atom   4H    basis set group =>   2
Atom   5H    basis set group =>   2
------------------------------------------------------------------------------
                             ORCA STARTUP CALCULATIONS
------------------------------------------------------------------------------
------------------------------------------------------------------------------
                   ___                                                        
                  /   \      - P O W E R E D   B Y -                         
                 /     \                                                     
                 |  |  |   _    _      __       _____    __    __             
                 |  |  |  | |  | |    /  \     |  _  \  |  |  /  |          
                  \  \/   | |  | |   /    \    | | | |  |  | /  /          
                 / \  \   | |__| |  /  /\  \   | |_| |  |  |/  /          
                |  |  |   |  __  | /  /__\  \  |    /   |      \           
                |  |  |   | |  | | |   __   |  |    \   |  |\   \          
                \     /   | |  | | |  |  |  |  | |\  \  |  | \   \       
                 \___/    |_|  |_| |__|  |__|  |_| \__\ |__|  \__/        
                                                                              
                      - O R C A' S   B I G   F R I E N D -                    
                                      &                                       
                       - I N T E G R A L  F E E D E R -                       
                                                                              
 v1 FN, 2020, v2 2021, v3 2022-2024                                           
------------------------------------------------------------------------------


----------------------
SHARK INTEGRAL PACKAGE
----------------------

Number of atoms                             ...      6
Number of basis functions                   ...     60
Number of shells                            ...     32
Maximum angular momentum                    ...      2
Integral batch strategy                     ... SHARK/LIBINT Hybrid
RI-J (if used) integral strategy            ... SPLIT-RIJ (Revised 2003 algorithm where possible)
Printlevel                                  ...      1
Contraction scheme used                     ... SEGMENTED contraction
Prescreening option                         ... SCHWARTZ
   Thresh                                   ... 2.500e-11
   Tcut                                     ... 2.500e-12
   Tpresel                                  ... 2.500e-12 
Coulomb Range Separation                    ... NOT USED
Exchange Range Separation                   ... NOT USED
Multipole approximations                    ... NOT USED
Finite Nucleus Model                        ... NOT USED
CABS basis                                  ... NOT available
Auxiliary Coulomb fitting basis             ... NOT available
Auxiliary J/K fitting basis                 ... NOT available
Auxiliary Correlation fitting basis         ... NOT available
Auxiliary 'external' fitting basis          ... NOT available

Checking pre-screening integrals            ... done (  0.0 sec) Dimension = 32
   => SHARK Basis and OBASIS are compatible. Storing Pre-screening
Shell pair information
Shell pair cut-off parameter TPreSel        ...   2.5e-12
Total number of shell pairs                 ...       528
Shell pairs after pre-screening             ...       506
Total number of primitive shell pairs       ...      1765
Primitive shell pairs kept                  ...      1381
          la=0 lb=0:    198 shell pairs
          la=1 lb=0:    193 shell pairs
          la=1 lb=1:     54 shell pairs
          la=2 lb=0:     38 shell pairs
          la=2 lb=1:     20 shell pairs
          la=2 lb=2:      3 shell pairs

Checking whether 4 symmetric matrices of dimension 60 fit in memory
:Max Core in MB      =   4096.00
 MB in use           =      1.81
 MB left             =   4094.19
 MB needed           =      0.06
 Data fit in memory  = YES
Calculating Nuclear repulsion               ... done (  0.0 sec) ENN=     36.724963413083 Eh

Diagonalization of the overlap matrix:
Smallest eigenvalue                        ... 1.271e-02
Time for diagonalization                   ...    0.001 sec
Threshold for overlap eigenvalues          ... 1.000e-07
Number of eigenvalues below threshold      ... 0
Time for construction of square roots      ...    0.000 sec
Total time needed                          ...    0.001 sec

-------------------
DFT GRID GENERATION
-------------------

General Integration Accuracy     IntAcc      ... 4.388
Radial Grid Type                 RadialGrid  ... OptM3 with GC (2021)
Angular Grid (max. ang.)         AngularGrid ... 4 (Lebedev-302)
Angular grid pruning method      GridPruning ... 4 (adaptive)
Weight generation scheme         WeightScheme... mBecke (2022)
Basis function cutoff            BFCut       ... 1.0000e-11
Integration weight cutoff        WCut        ... 1.0000e-14
Partially contracted basis set               ... off
Rotationally invariant grid construction     ... off
Angular grids for H and He will be reduced by one unit

Total number of grid points                  ...    25443
Total number of batches                      ...      400
Average number of points per batch           ...       63
Average number of grid points per atom       ...     4240
Grids setup in   0.2 sec
Initializing property integral containers    ... done (  0.0 sec)

SHARK setup successfully completed in   0.2 seconds

Maximum memory used throughout the entire STARTUP-calculation: 9.7 MB
-------------------------------------------------------------------------------
                                 ORCA GUESS
                   Start orbitals & Density for SCF / CASSCF
-------------------------------------------------------------------------------

------------
SCF SETTINGS
------------
Hamiltonian:
 Ab initio Hamiltonian  Method          .... Hartree-Fock(GTOs)


General Settings:
 Integral files         IntName         .... /home/vivek/mm/lab5/6-311/water/dimer/dimer
 Hartree-Fock type      HFTyp           .... RHF
 Total Charge           Charge          ....    0
 Multiplicity           Mult            ....    1
 Number of Electrons    NEL             ....   20
 Basis Dimension        Dim             ....   60
 Nuclear Repulsion      ENuc            ....     36.7249634131 Eh

Convergence Acceleration:
 AO-DIIS                CNVDIIS         .... on
   Start iteration      DIISMaxIt       ....    12
   Startup error        DIISStart       ....  0.200000
   # of expansion vecs  DIISMaxEq       ....     5
   Bias factor          DIISBfac        ....   1.050
   Max. coefficient     DIISMaxC        ....  10.000
 MO-DIIS                CNVKDIIS        .... off
 Trust-Rad. Augm. Hess. CNVTRAH         .... auto
   Auto Start mean grad. ratio tolernc. ....  1.125000
   Auto Start start iteration           ....    50
   Auto Start num. interpolation iter.  ....    10
   Max. Number of Micro iterations      ....    24
   Max. Number of Macro iterations      .... Maxiter - #DIIS iter
   Number of Davidson start vectors     ....     2
   Converg. threshold    (grad. norm)   ....   1.000e-05
   Grad. Scal. Fac. for Micro threshold ....   0.100
   Minimum threshold for Micro iter.    ....   1.000e-02
   NR start threshold (gradient norm)   ....   1.000e-04
   Initial trust radius                 ....   0.400
   Minimum AH scaling param. (alpha)    ....   1.000
   Maximum AH scaling param. (alpha)    .... 1000.000
   Quad. conv. algorithm                .... NR
   White noise on init. David. guess    .... on
   Maximum white noise                  ....   0.010
   Pseudo random numbers                .... off
   Inactive MOs                         .... canonical
   Orbital update algorithm             .... Taylor
   Preconditioner                       .... Diag
   Full preconditioner red. dimension   ....   250
 SOSCF                 CNVSOSCF           .... on
   Start iteration     SOSCFMaxIt         ....   150
   Startup grad/error  SOSCFStart         ....  0.003300
   Hessian update      SOSCFHessUp        .... L-BFGS
   Autom. constraints  SOSCFAutoConstrain .... off
 Level Shifting         CNVShift        .... on
   Level shift para.    LevelShift      ....    0.2500
   Turn off err/grad.   ShiftErr        ....    0.0010
 Zerner damping         CNVZerner       .... off
 Static damping         CNVDamp         .... on
   Fraction old density DampFac         ....    0.7000
   Max. Damping (<1)    DampMax         ....    0.9800
   Min. Damping (>=0)   DampMin         ....    0.0000
   Turn off err/grad.   DampErr         ....    0.1000

SCF Procedure:
 Maximum # iterations   MaxIter         ....   125
 SCF integral mode      SCFMode         .... Direct
   Integral package                     .... SHARK and LIBINT hybrid scheme
 Reset frequency        DirectResetFreq ....    20
 Integral Threshold     Thresh          ....  2.500e-11 Eh
 Primitive CutOff       TCut            ....  2.500e-12 Eh

Convergence Tolerance:
 Convergence Check Mode ConvCheckMode   .... Total+1el-Energy
 Convergence forced     ConvForced      .... 1
 Energy Change          TolE            ....  1.000e-08 Eh
 1-El. energy change                    ....  1.000e-05 Eh
 Orbital Gradient       TolG            ....  1.000e-05
 Orbital Rotation angle TolX            ....  1.000e-05
 DIIS Error             TolErr          ....  5.000e-07

------------------------------
INITIAL GUESS: MODEL POTENTIAL
------------------------------
Loading Hartree-Fock densities                     ... done
Calculating cut-offs                               ... done
Initializing the effective Hamiltonian             ... done
Setting up the integral package (SHARK)            ... done
Starting the Coulomb interaction                   ... done (   0.0 sec)
Making the grid                                    ... done (   0.0 sec)
Mapping shells                                     ... done
Starting the XC term evaluation                    ... done (   0.0 sec)
Transforming the Hamiltonian                       ... done (   0.0 sec)
Diagonalizing the Hamiltonian                      ... done (   0.0 sec)
Back transforming the eigenvectors                 ... done (   0.0 sec)
Now organizing SCF variables                       ... done
                      ------------------
                      INITIAL GUESS DONE (   0.1 sec)
                      ------------------
             **** ENERGY FILE WAS UPDATED (/home/vivek/mm/lab5/6-311/water/dimer/dimer.en.tmp) ****
Finished Guess after   0.1 sec
Maximum memory used throughout the entire GUESS-calculation: 4.3 MB

-------------------------------------------------------------------------------------------
                                      ORCA LEAN-SCF
                              memory conserving SCF solver
-------------------------------------------------------------------------------------------

----------------------------------------D-I-I-S--------------------------------------------
Iteration    Energy (Eh)           Delta-E    RMSDP     MaxDP     DIISErr   Damp  Time(sec)
-------------------------------------------------------------------------------------------
               ***  Starting incremental Fock matrix formation  ***
    1    -151.9036439256219353     0.00e+00  3.77e-03  5.46e-02  4.15e-01  0.700   0.2
    2    -151.9808706054175786    -7.72e-02  2.52e-03  3.21e-02  2.45e-01  0.700   0.1
                               ***Turning on AO-DIIS***
    3    -152.0218694501281504    -4.10e-02  9.32e-04  8.33e-03  1.34e-01  0.700   0.1
    4    -152.0466443558352125    -2.48e-02  5.95e-04  5.81e-03  9.12e-02  0.700   0.1
    5    -152.0631099043935706    -1.65e-02  1.48e-03  1.47e-02  6.50e-02  0.000   0.1
    6    -152.1003445438575170    -3.72e-02  2.06e-04  1.82e-03  4.71e-03  0.000   0.1
                              *** Initializing SOSCF ***
---------------------------------------S-O-S-C-F--------------------------------------
Iteration    Energy (Eh)           Delta-E    RMSDP     MaxDP     MaxGrad    Time(sec)
--------------------------------------------------------------------------------------
    7    -152.1004178734846164    -7.33e-05  1.24e-04  1.14e-03  1.45e-03     0.1
               *** Restarting incremental Fock matrix formation ***
    8    -152.1004345259784429    -1.67e-05  4.95e-05  6.38e-04  3.56e-04     0.2
    9    -152.1004366217122481    -2.10e-06  3.79e-05  3.87e-04  1.33e-04     0.1
   10    -152.1004370813748494    -4.60e-07  5.52e-06  7.54e-05  7.36e-05     0.1
   11    -152.1004371124679437    -3.11e-08  1.25e-06  2.19e-05  1.34e-05     0.1
   12    -152.1004371138012630    -1.33e-09  2.57e-07  2.55e-06  1.88e-06     0.1
                 **** Energy Check signals convergence ****

               *****************************************************
               *                     SUCCESS                       *
               *           SCF CONVERGED AFTER  12 CYCLES          *
               *****************************************************

             **** ENERGY FILE WAS UPDATED (/home/vivek/mm/lab5/6-311/water/dimer/dimer.en.tmp) ****

----------------
TOTAL SCF ENERGY
----------------

Total Energy       :       -152.10043711386777 Eh           -4138.86331 eV

Components:
Nuclear Repulsion  :         36.72496341308275 Eh             999.33706 eV
Electronic Energy  :       -188.82540052695052 Eh           -5138.20037 eV
One Electron Energy:       -282.94598435111419 Eh           -7699.35166 eV
Two Electron Energy:         94.12058382416367 Eh            2561.15129 eV

Virial components:
Potential Energy   :       -304.17092854052339 Eh           -8276.91176 eV
Kinetic Energy     :        152.07049142665565 Eh            4138.04845 eV
Virial Ratio       :          2.00019691977668

---------------
SCF CONVERGENCE
---------------

  Last Energy change         ...    1.3333e-09  Tolerance :   1.0000e-08
  Last MAX-Density change    ...    2.5501e-06  Tolerance :   1.0000e-07
  Last RMS-Density change    ...    2.5723e-07  Tolerance :   5.0000e-09
  Last DIIS Error            ...    1.4521e-03  Tolerance :   5.0000e-07
  Last Orbital Gradient      ...    1.8810e-06  Tolerance :   1.0000e-05
  Last Orbital Rotation      ...    2.5133e-06  Tolerance :   1.0000e-05


----------------
ORBITAL ENERGIES
----------------

  NO   OCC          E(Eh)            E(eV) 
   0   2.0000     -20.578648      -559.9735 
   1   2.0000     -20.518015      -558.3236 
   2   2.0000      -1.370714       -37.2990 
   3   2.0000      -1.313304       -35.7368 
   4   2.0000      -0.732849       -19.9418 
   5   2.0000      -0.684371       -18.6227 
   6   2.0000      -0.603918       -16.4335 
   7   2.0000      -0.555384       -15.1128 
   8   2.0000      -0.520003       -14.1500 
   9   2.0000      -0.475202       -12.9309 
  10   0.0000       0.132349         3.6014 
  11   0.0000       0.190824         5.1926 
  12   0.0000       0.205058         5.5799 
  13   0.0000       0.326075         8.8730 
  14   0.0000       0.537353        14.6221 
  15   0.0000       0.572141        15.5688 
  16   0.0000       0.586758        15.9665 
  17   0.0000       0.647507        17.6196 
  18   0.0000       0.958159        26.0728 
  19   0.0000       1.022369        27.8201 
  20   0.0000       1.030289        28.0356 
*Only the first 10 virtual orbitals were printed.

                    ********************************
                    * MULLIKEN POPULATION ANALYSIS *
                    ********************************

-----------------------
MULLIKEN ATOMIC CHARGES
-----------------------
   0 O :   -0.550890
   1 H :    0.244211
   2 H :    0.271638
   3 O :   -0.512486
   4 H :    0.273596
   5 H :    0.273931
Sum of atomic charges:   -0.0000000

--------------------------------
MULLIKEN REDUCED ORBITAL CHARGES
--------------------------------
  0 O s       :     3.786324  s :     3.786324
      pz      :     1.628491  p :     4.752918
      px      :     1.738472
      py      :     1.385956
      dz2     :     0.001801  d :     0.011648
      dxz     :     0.001649
      dyz     :     0.004955
      dx2y2   :     0.000598
      dxy     :     0.002645

  1 H s       :     0.686339  s :     0.686339
      pz      :     0.025339  p :     0.069450
      px      :     0.018675
      py      :     0.025437

  2 H s       :     0.656476  s :     0.656476
      pz      :     0.017346  p :     0.071886
      px      :     0.026087
      py      :     0.028454

  3 O s       :     3.788060  s :     3.788060
      pz      :     1.527877  p :     4.712563
      px      :     1.452202
      py      :     1.732485
      dz2     :     0.004724  d :     0.011863
      dxz     :     0.001677
      dyz     :     0.001293
      dx2y2   :     0.000555
      dxy     :     0.003613

  4 H s       :     0.658265  s :     0.658265
      pz      :     0.015637  p :     0.068139
      px      :     0.029891
      py      :     0.022610

  5 H s       :     0.657798  s :     0.657798
      pz      :     0.030493  p :     0.068271
      px      :     0.019533
      py      :     0.018245



                     *******************************
                     * LOEWDIN POPULATION ANALYSIS *
                     *******************************

----------------------
LOEWDIN ATOMIC CHARGES
----------------------
   0 O :   -0.104381
   1 H :    0.033624
   2 H :    0.014727
   3 O :   -0.045333
   4 H :    0.050465
   5 H :    0.050897

-------------------------------
LOEWDIN REDUCED ORBITAL CHARGES
-------------------------------
  0 O s       :     3.362626  s :     3.362626
      pz      :     1.638313  p :     4.728268
      px      :     1.711714
      py      :     1.378240
      dz2     :     0.001636  d :     0.013487
      dxz     :     0.001259
      dyz     :     0.006324
      dx2y2   :     0.000810
      dxy     :     0.003458

  1 H s       :     0.771826  s :     0.771826
      pz      :     0.080674  p :     0.194549
      px      :     0.047945
      py      :     0.065930

  2 H s       :     0.775754  s :     0.775754
      pz      :     0.049668  p :     0.209519
      px      :     0.081363
      py      :     0.078487

  3 O s       :     3.361021  s :     3.361021
      pz      :     1.532118  p :     4.670518
      px      :     1.438247
      py      :     1.700153
      dz2     :     0.005568  d :     0.013795
      dxz     :     0.002148
      dyz     :     0.000958
      dx2y2   :     0.000574
      dxy     :     0.004546

  4 H s       :     0.756553  s :     0.756553
      pz      :     0.037961  p :     0.192981
      px      :     0.084364
      py      :     0.070656

  5 H s       :     0.756062  s :     0.756062
      pz      :     0.095284  p :     0.193040
      px      :     0.047519
      py      :     0.050237



                      *****************************
                      * MAYER POPULATION ANALYSIS *
                      *****************************

  NA   - Mulliken gross atomic population
  ZA   - Total nuclear charge
  QA   - Mulliken gross atomic charge
  VA   - Mayer's total valence
  BVA  - Mayer's bonded valence
  FA   - Mayer's free valence

  ATOM       NA         ZA         QA         VA         BVA        FA
  0 O      8.5509     8.0000    -0.5509     1.8796     1.8796    -0.0000
  1 H      0.7558     1.0000     0.2442     0.9697     0.9697    -0.0000
  2 H      0.7284     1.0000     0.2716     0.9853     0.9853    -0.0000
  3 O      8.5125     8.0000    -0.5125     1.9539     1.9539    -0.0000
  4 H      0.7264     1.0000     0.2736     0.9540     0.9540    -0.0000
  5 H      0.7261     1.0000     0.2739     0.9523     0.9523    -0.0000

  Mayer bond orders larger than 0.100000
B(  0-O ,  1-H ) :   0.9672 B(  0-O ,  2-H ) :   0.9069 B(  3-O ,  4-H ) :   0.9415 
B(  3-O ,  5-H ) :   0.9423 

-------
TIMINGS
-------

Total SCF time: 0 days 0 hours 0 min 1 sec 

Total time                  ....       1.439 sec
Sum of individual times     ....       1.305 sec  ( 90.7%)

SCF preparation             ....       0.047 sec  (  3.3%)
Fock matrix formation       ....       1.208 sec  ( 84.0%)
  Startup                   ....       0.001 sec  (  0.0% of F)
  Coulomb+Exchange Fock     ....       1.323 sec  (109.5% of F)
Diagonalization             ....       0.000 sec  (  0.0%)
Density matrix formation    ....       0.018 sec  (  1.3%)
Total Energy calculation    ....       0.001 sec  (  0.0%)
Population analysis         ....       0.018 sec  (  1.3%)
Orbital Transformation      ....       0.001 sec  (  0.1%)
Orbital Orthonormalization  ....       0.000 sec  (  0.0%)
DIIS solution               ....       0.008 sec  (  0.5%)
SOSCF solution              ....       0.003 sec  (  0.2%)
Finished LeanSCF after   1.4 sec

Maximum memory used throughout the entire LEANSCF-calculation: 7.8 MB

------------------------------------------------------------------------------
                                ORCA  MP2 
------------------------------------------------------------------------------

Freezing NCore=4 chemical core electrons
MP2 will be done in the AO integral direct mode
The Q1-step will be done using symmetric double matrices
Dimension of the basis                    ...   60
Memory devoted for MP2                    ... 4096 MB   
Memory needed for all in one shot         ...    8 MB
Number of MOs that can be treated together... 4888      
MP2 density construction                  ... relaxed
The MP2 gradient is requested => amplitudes will be stored on disk
Total number of MOs              ...    8
Number of MOs treated per batch  ...    8 
Number of batches necessary      ...    1 
OPERATORS   0/  0 PASS   0
-----------------------------------------------
 MP2 CORRELATION ENERGY   :     -0.438397517 Eh
-----------------------------------------------


---------------------
MP2 DENSITY FORMATION
---------------------

Completing the external part of the density      ... done
Storing the unrelaxed density                    ... done

Calculating G(D)                                 ... done
Completing the Lagrangian                        ... done
Solving the Z-vector equations                   ... 
-------------------
SHARK CP-SCF DRIVER
-------------------

Dimension of the orbital basis          ...     60
Dimension of the CPSCF-problem          ...    500
Number of operators                     ...      1
Max. number of iterations               ...    128
Convergence Tolerance                   ... 1.0e-04
Number of perturbations                 ...      1
Perturbation type                       ... REAL

----------------------------
POPLE LINEAR EQUATION SOLVER
----------------------------

  ITERATION   0:   ||err||_max =   3.2195e-02 (   0.3 sec)
  ITERATION   1:   ||err||_max =   9.4385e-03 (   0.1 sec)
  ITERATION   2:   ||err||_max =   1.7094e-03 (   0.1 sec)
  ITERATION   3:   ||err||_max =   2.0668e-04 (   0.1 sec)
  ITERATION   4:   ||err||_max =   5.0049e-05 (   0.1 sec)
                                                 ... done
Finalizing the relaxed density                   ... done
Transforming P to the AO basis                   ... done
Storing the relaxed density                      ... done

------------------------------------
ENERGY WEIGHTED DENSITY FINALIZATION
------------------------------------

Gathering the parts of the W-matrix              ...                                                      done
Forming the Z-density                            ... done
Transforming Z to the AO basis                   ... done
Calculating G(Z)                                 ... done
Finalizing the W-matrix                          ...                                                      done
Transforming W to the AO basis and storing       ... done

                *********************************************
                * UNRELAXED MP2 DENSITY POPULATION ANALYSIS *
                *********************************************

------------------------------------------------------------------------------
                           ORCA POPULATION ANALYSIS
------------------------------------------------------------------------------
Input electron density              ... /home/vivek/mm/lab5/6-311/water/dimer/dimer.pmp2ur
BaseName (.gbw .S,...)              ... /home/vivek/mm/lab5/6-311/water/dimer/dimer

                    ********************************
                    * MULLIKEN POPULATION ANALYSIS *
                    ********************************

-----------------------
MULLIKEN ATOMIC CHARGES
-----------------------
   0 O :   -0.543683
   1 H :    0.240784
   2 H :    0.266587
   3 O :   -0.503977
   4 H :    0.269925
   5 H :    0.270365
Sum of atomic charges:   -0.0000000

--------------------------------
MULLIKEN REDUCED ORBITAL CHARGES
--------------------------------
  0 O s       :     3.783430  s :     3.783430
      pz      :     1.621109  p :     4.732503
      px      :     1.730657
      py      :     1.380738
      dz2     :     0.005042  d :     0.027750
      dxz     :     0.004894
      dyz     :     0.008046
      dx2y2   :     0.003919
      dxy     :     0.005848
  1 H s       :     0.687425  s :     0.687425
      pz      :     0.025934  p :     0.071791
      px      :     0.020060
      py      :     0.025797
  2 H s       :     0.659347  s :     0.659347
      pz      :     0.018552  p :     0.074066
      px      :     0.026745
      py      :     0.028769
  3 O s       :     3.785062  s :     3.785062
      pz      :     1.521141  p :     4.690958
      px      :     1.446242
      py      :     1.723575
      dz2     :     0.007859  d :     0.027958
      dxz     :     0.004854
      dyz     :     0.004559
      dx2y2   :     0.003884
      dxy     :     0.006803
  4 H s       :     0.659721  s :     0.659721
      pz      :     0.016897  p :     0.070355
      px      :     0.029935
      py      :     0.023523
  5 H s       :     0.659159  s :     0.659159
      pz      :     0.030533  p :     0.070476
      px      :     0.020377
      py      :     0.019566


                     *******************************
                     * LOEWDIN POPULATION ANALYSIS *
                     *******************************

----------------------
LOEWDIN ATOMIC CHARGES
----------------------
   0 O :   -0.098754
   1 H :    0.030680
   2 H :    0.010400
   3 O :   -0.037841
   4 H :    0.047504
   5 H :    0.048011

-------------------------------
LOEWDIN REDUCED ORBITAL CHARGES
-------------------------------
  0 O s       :     3.360985  s :     3.360985
      pz      :     1.630619  p :     4.707119
      px      :     1.704054
      py      :     1.372446
      dz2     :     0.004949  d :     0.030650
      dxz     :     0.004657
      dyz     :     0.009827
      dx2y2   :     0.004198
      dxy     :     0.007019
  1 H s       :     0.770824  s :     0.770824
      pz      :     0.082175  p :     0.198496
      px      :     0.049153
      py      :     0.067168
  2 H s       :     0.776370  s :     0.776370
      pz      :     0.050903  p :     0.213230
      px      :     0.082637
      py      :     0.079690
  3 O s       :     3.359180  s :     3.359180
      pz      :     1.524930  p :     4.647755
      px      :     1.431741
      py      :     1.691084
      dz2     :     0.009008  d :     0.030906
      dxz     :     0.005508
      dyz     :     0.004314
      dx2y2   :     0.003947
      dxy     :     0.008129
  4 H s       :     0.755866  s :     0.755866
      pz      :     0.039089  p :     0.196631
      px      :     0.085608
      py      :     0.071935
  5 H s       :     0.755299  s :     0.755299
      pz      :     0.096706  p :     0.196690
      px      :     0.048572
      py      :     0.051412


                      *****************************
                      * MAYER POPULATION ANALYSIS *
                      *****************************

  NA   - Mulliken gross atomic population
  ZA   - Total nuclear charge
  QA   - Mulliken gross atomic charge
  VA   - Mayer's total valence
  BVA  - Mayer's bonded valence
  FA   - Mayer's free valence

  ATOM       NA         ZA         QA         VA         BVA        FA
  0 O      8.5437     8.0000    -0.5437     2.1129     1.7978     0.3152
  1 H      0.7592     1.0000     0.2408     0.9780     0.9270     0.0510
  2 H      0.7334     1.0000     0.2666     0.9948     0.9441     0.0507
  3 O      8.5040     8.0000    -0.5040     2.1877     1.8694     0.3183
  4 H      0.7301     1.0000     0.2699     0.9624     0.9122     0.0501
  5 H      0.7296     1.0000     0.2704     0.9605     0.9107     0.0499

  Mayer bond orders larger than 0.100000
B(  0-O ,  1-H ) :   0.9250 B(  0-O ,  2-H ) :   0.8681 B(  3-O ,  4-H ) :   0.9004 
B(  3-O ,  5-H ) :   0.9012 


                *******************************************
                * RELAXED MP2 DENSITY POPULATION ANALYSIS *
                *******************************************

------------------------------------------------------------------------------
                           ORCA POPULATION ANALYSIS
------------------------------------------------------------------------------
Input electron density              ... /home/vivek/mm/lab5/6-311/water/dimer/dimer.pmp2re
BaseName (.gbw .S,...)              ... /home/vivek/mm/lab5/6-311/water/dimer/dimer

                    ********************************
                    * MULLIKEN POPULATION ANALYSIS *
                    ********************************

-----------------------
MULLIKEN ATOMIC CHARGES
-----------------------
   0 O :   -0.520372
   1 H :    0.232449
   2 H :    0.236356
   3 O :   -0.469699
   4 H :    0.260174
   5 H :    0.261093
Sum of atomic charges:   -0.0000000

--------------------------------
MULLIKEN REDUCED ORBITAL CHARGES
--------------------------------
  0 O s       :     3.781476  s :     3.781476
      pz      :     1.612510  p :     4.711745
      px      :     1.723941
      py      :     1.375294
      dz2     :     0.004993  d :     0.027152
      dxz     :     0.004879
      dyz     :     0.007712
      dx2y2   :     0.003899
      dxy     :     0.005669
  1 H s       :     0.696230  s :     0.696230
      pz      :     0.025158  p :     0.071322
      px      :     0.021484
      py      :     0.024680
  2 H s       :     0.690464  s :     0.690464
      pz      :     0.019415  p :     0.073180
      px      :     0.026171
      py      :     0.027594
  3 O s       :     3.784174  s :     3.784174
      pz      :     1.512909  p :     4.658154
      px      :     1.439014
      py      :     1.706232
      dz2     :     0.007568  d :     0.027371
      dxz     :     0.004779
      dyz     :     0.004559
      dx2y2   :     0.003878
      dxy     :     0.006588
  4 H s       :     0.669894  s :     0.669894
      pz      :     0.018056  p :     0.069933
      px      :     0.027918
      py      :     0.023958
  5 H s       :     0.668845  s :     0.668845
      pz      :     0.028350  p :     0.070062
      px      :     0.020722
      py      :     0.020989


                     *******************************
                     * LOEWDIN POPULATION ANALYSIS *
                     *******************************

----------------------
LOEWDIN ATOMIC CHARGES
----------------------
   0 O :   -0.091482
   1 H :    0.027136
   2 H :   -0.002282
   3 O :   -0.022468
   4 H :    0.044090
   5 H :    0.045006

-------------------------------
LOEWDIN REDUCED ORBITAL CHARGES
-------------------------------
  0 O s       :     3.361640  s :     3.361640
      pz      :     1.626755  p :     4.699770
      px      :     1.700917
      py      :     1.372097
      dz2     :     0.004894  d :     0.030072
      dxz     :     0.004675
      dyz     :     0.009501
      dx2y2   :     0.004148
      dxy     :     0.006854
  1 H s       :     0.774324  s :     0.774324
      pz      :     0.082162  p :     0.198540
      px      :     0.050259
      py      :     0.066120
  2 H s       :     0.788061  s :     0.788061
      pz      :     0.051710  p :     0.214221
      px      :     0.083172
      py      :     0.079338
  3 O s       :     3.359961  s :     3.359961
      pz      :     1.522187  p :     4.632198
      px      :     1.429993
      py      :     1.680018
      dz2     :     0.008743  d :     0.030308
      dxz     :     0.005377
      dyz     :     0.004333
      dx2y2   :     0.003918
      dxy     :     0.007937
  4 H s       :     0.759701  s :     0.759701
      pz      :     0.039664  p :     0.196210
      px      :     0.084233
      py      :     0.072314
  5 H s       :     0.758796  s :     0.758796
      pz      :     0.095636  p :     0.196198
      px      :     0.048261
      py      :     0.052301


                      *****************************
                      * MAYER POPULATION ANALYSIS *
                      *****************************

  NA   - Mulliken gross atomic population
  ZA   - Total nuclear charge
  QA   - Mulliken gross atomic charge
  VA   - Mayer's total valence
  BVA  - Mayer's bonded valence
  FA   - Mayer's free valence

  ATOM       NA         ZA         QA         VA         BVA        FA
  0 O      8.5204     8.0000    -0.5204     2.1274     1.8143     0.3131
  1 H      0.7676     1.0000     0.2324     0.9829     0.9320     0.0509
  2 H      0.7636     1.0000     0.2364     1.0326     0.9831     0.0494
  3 O      8.4697     8.0000    -0.4697     2.2308     1.9161     0.3147
  4 H      0.7398     1.0000     0.2602     0.9710     0.9211     0.0499
  5 H      0.7389     1.0000     0.2611     0.9682     0.9185     0.0497

  Mayer bond orders larger than 0.100000
B(  0-O ,  1-H ) :   0.9317 B(  0-O ,  2-H ) :   0.8744 B(  2-H ,  3-O ) :   0.1044 
B(  3-O ,  4-H ) :   0.9074 B(  3-O ,  5-H ) :   0.9083 


----------------------------------
MP2 DERIVATIVE INTEGRAL GENERATION
----------------------------------

Input SCF Electron Density              ... /home/vivek/mm/lab5/6-311/water/dimer/dimer.scfp
Input Correlated Electron Density       ... /home/vivek/mm/lab5/6-311/water/dimer/dimer.pmp2re
Input Energy Weighted Density           ... /home/vivek/mm/lab5/6-311/water/dimer/dimer.wmp2.tmp
Input Wavefunction Amplitudes           ... /home/vivek/mm/lab5/6-311/water/dimer/dimer.mp2tsaa.tmp

Nuclear repulsion gradient              ... done (  0.0 sec)
HCore & Overlap gradient  (SHARK)       ... done (  0.0 sec)
Analytic two-electron gradient terms    ... 
  Batch handling in the gradient evaluation:
  General contraction                   ... not used
  Memory available                      ... 4093.5 MB
  Memory per occupied orbital in Q2     ...    0.2 MB
  Memory per occupied orbital in Q3     ...    0.0 MB
  Total memory requirement per |i>      ...    0.2 MB
  Number of orbitals treated per batch  ...      8
  Number of batches to be done          ...      1
done (  0.8 sec)

---------------------------------------
MP2 TOTAL ENERGY:     -152.538834631 Eh
---------------------------------------

The final MP2 gradient
  0:  -0.00109126  -0.00052650  -0.00132422
  1:  -0.00156740  -0.00470536   0.00208130
  2:   0.00248556   0.00541934  -0.00106719
  3:   0.00122157  -0.00056494   0.00202549
  4:  -0.00450093   0.00134665   0.00196684
  5:   0.00345246  -0.00096918  -0.00368222

-----------------------------------
NORM OF THE MP2 GRADIENT:  0.011274
-----------------------------------

Maximum memory used throughout the entire MP2-calculation: 15.8 MB

-------------------------   --------------------
FINAL SINGLE POINT ENERGY      -152.538834630785
-------------------------   --------------------

------------------------------------------------------------------------------
                         ORCA GEOMETRY RELAXATION STEP
------------------------------------------------------------------------------

Reading the OPT-File                    .... done
Getting information on internals        .... done
Copying old internal coords+grads       .... done
Making the new internal coordinates     .... (2022 redundants) done
Validating the new internal coordinates .... (2022 redundants) done
Calculating the B-matrix                .... done
Calculating the G,G- and P matrices     .... done
Transforming gradient to internals      .... done
Projecting the internal gradient        .... done
Number of atoms                         ....   6
Number of internal coordinates          ....  32
Current Energy                          ....  -152.538834631 Eh
Current gradient norm                   ....     0.011274243 Eh/bohr
Maximum allowed component of the step   ....  0.300
Current trust radius                    ....  0.300
Evaluating the initial hessian          ....  (Almloef) done
Projecting the Hessian                  .... done
Forming the augmented Hessian           .... done
Diagonalizing the augmented Hessian     .... done
Last element of RFO vector              ....  0.999432178
Lowest eigenvalues of augmented Hessian:
 -0.000286208  0.014288447  0.047774639  0.084050132  0.102639417
Length of the computed step             ....  0.033713688
The final length of the internal step   ....  0.033713688
Converting the step to Cartesian space:
 Initial RMS(Int)=    0.0059597944
Transforming coordinates:
 Iter   0:  RMS(Cart)=    0.0095429218 RMS(Int)=    0.0059649837
done
Storing new coordinates                 .... done

                                .--------------------.
          ----------------------|Geometry convergence|-------------------------
          Item                value                   Tolerance       Converged
          ---------------------------------------------------------------------
          RMS gradient        0.0018493231            0.0001000000      NO
          MAX gradient        0.0051793430            0.0003000000      NO
          RMS step            0.0059597944            0.0020000000      NO
          MAX step            0.0149743471            0.0040000000      NO
          -------------------------------------------------------------------------
          ........................................................
          Max(Bonds)      0.0054      Max(Angles)    0.86
          Max(Dihed)        0.55      Max(Improp)    0.00
          ---------------------------------------------------------------------

The optimization has not yet converged - more geometry cycles are needed


    ---------------------------------------------------------------------------
                         Redundant Internal Coordinates
                            (Angstroem and degrees)

        Definition                    Value    dE/dq     Step     New-Value
    ----------------------------------------------------------------------------
     1. B(H   1,O   0)                0.9606  0.004683 -0.0048    0.9558   
     2. B(H   2,O   0)                0.9675  0.005179 -0.0054    0.9621   
     3. B(O   3,H   2)                1.9655 -0.000323 -0.0032    1.9622   
     4. B(H   4,O   3)                0.9637  0.003591 -0.0044    0.9593   
     5. B(H   4,H   2)                2.2600  0.000359 -0.0029    2.2571   
     6. B(H   5,H   2)                2.3596  0.000713 -0.0042    2.3555   
     7. B(H   5,O   3)                0.9636  0.003464 -0.0044    0.9592   
     8. A(H   1,O   0,H   2)          104.21  0.004800   -0.86    103.35   
     9. A(H   4,H   2,H   5)           38.41  0.001566   -0.28     38.13   
    10. A(O   3,H   2,H   4)           25.15  0.000915   -0.09     25.05   
    11. A(O   3,H   2,H   5)           23.56  0.000821   -0.08     23.48   
    12. A(O   0,H   2,H   4)          141.26 -0.000963    0.18    141.44   
    13. A(O   0,H   2,O   3)          165.11 -0.000110    0.12    165.23   
    14. A(O   0,H   2,H   5)          149.45 -0.000695    0.09    149.53   
    15. A(H   2,O   3,H   5)          101.83 -0.000671    0.10    101.93   
    16. A(H   4,O   3,H   5)          104.37  0.001112   -0.58    103.79   
    17. A(H   2,O   3,H   4)           94.78 -0.000723    0.15     94.93   
    18. A(H   2,H   4,O   3)           60.07 -0.000192   -0.05     60.02   
    19. A(H   2,H   5,O   3)           54.61 -0.000150   -0.02     54.59   
    20. D(H   5,H   2,O   0,H   1)    160.98 -0.000796    0.13    161.11   
    21. D(H   4,H   2,O   0,H   1)   -129.61  0.000697   -0.14   -129.75   
    22. D(O   3,H   2,O   0,H   1)   -149.28  0.000172    0.00   -149.28   
    23. D(H   5,O   3,H   2,O   0)    -76.07 -0.000464    0.30    -75.77   
    24. D(H   4,O   3,H   2,O   0)     29.71  0.000411   -0.25     29.47   
    25. D(H   5,O   3,H   2,H   4)   -105.78 -0.000875    0.55   -105.23   
    26. D(H   4,O   3,H   2,H   5)    105.78  0.000875   -0.55    105.23   
    27. D(H   2,H   4,O   3,H   5)    103.52 -0.000741    0.06    103.58   
    28. D(O   3,H   4,H   2,H   5)    -38.25  0.000268   -0.25    -38.50   
    29. D(O   3,H   4,H   2,O   0)   -168.26 -0.000014   -0.14   -168.39   
    30. D(H   2,H   5,O   3,H   4)    -98.14  0.000686   -0.04    -98.18   
    31. D(O   3,H   5,H   2,H   4)     41.16 -0.000240    0.27     41.43   
    32. D(O   3,H   5,H   2,O   0)    150.62  0.000366    0.21    150.83   
    ----------------------------------------------------------------------------

Geometry step timings:
Preparation and reading OPT file:      0.000 s ( 3.494 %)
Internal coordinates            :      0.000 s ( 2.974 %)
B/P matrices and projection     :      0.000 s (18.067 %)
Hessian update/contruction      :      0.000 s (15.985 %)
Making the step                 :      0.000 s (21.115 %)
Converting the step to Cartesian:      0.000 s ( 5.874 %)
Storing new data                :      0.000 s ( 3.866 %)
Checking convergence            :      0.000 s ( 3.420 %)
Final printing                  :      0.000 s (25.204 %)
Total time                      :      0.001 s

Time for energy+gradient        :      4.185 s
Time for complete geometry iter :      4.246 s

         *************************************************************
         *                GEOMETRY OPTIMIZATION CYCLE   2            *
         *************************************************************
---------------------------------
CARTESIAN COORDINATES (ANGSTROEM)
---------------------------------
  O     -1.956344    1.821739   -0.395079
  H     -1.897499    1.164260    0.296143
  H     -1.340308    2.502402   -0.107205
  O     -0.406385    4.193372    0.237479
  H     -1.201291    4.730358    0.226355
  H      0.001599    4.371253   -0.612162

----------------------------
CARTESIAN COORDINATES (A.U.)
----------------------------
  NO LB      ZA    FRAG     MASS         X           Y           Z
   0 O     8.0000    0    15.999   -3.696954    3.442588   -0.746591
   1 H     1.0000    0     1.008   -3.585753    2.200132    0.559629
   2 H     1.0000    0     1.008   -2.532814    4.728855   -0.202589
   3 O     8.0000    0    15.999   -0.767956    7.924325    0.448771
   4 H     1.0000    0     1.008   -2.270111    8.939082    0.427750
   5 H     1.0000    0     1.008    0.003022    8.260470   -1.156819

--------------------------------
INTERNAL COORDINATES (ANGSTROEM)
--------------------------------
 O      0   0   0     0.000000000000     0.00000000     0.00000000
 H      1   0   0     0.955787060214     0.00000000     0.00000000
 H      1   2   0     0.962119729394   103.34719773     0.00000000
 O      3   1   2     1.962243315153   165.23075624   210.72114833
 H      4   3   1     0.959350751121    94.93104958    29.46637559
 H      4   3   1     0.959157473847   101.92677844   284.23276821

---------------------------
INTERNAL COORDINATES (A.U.)
---------------------------
 O      0   0   0     0.000000000000     0.00000000     0.00000000
 H      1   0   0     1.806175786150     0.00000000     0.00000000
 H      1   2   0     1.818142796598   103.34719773     0.00000000
 O      3   1   2     3.708102473757   165.23075624   210.72114833
 H      4   3   1     1.812910185990    94.93104958    29.46637559
 H      4   3   1     1.812544944874   101.92677844   284.23276821

------------------------------------------------------------------------------
                   ___                                                        
                  /   \      - P O W E R E D   B Y -                         
                 /     \                                                     
                 |  |  |   _    _      __       _____    __    __             
                 |  |  |  | |  | |    /  \     |  _  \  |  |  /  |          
                  \  \/   | |  | |   /    \    | | | |  |  | /  /          
                 / \  \   | |__| |  /  /\  \   | |_| |  |  |/  /          
                |  |  |   |  __  | /  /__\  \  |    /   |      \           
                |  |  |   | |  | | |   __   |  |    \   |  |\   \          
                \     /   | |  | | |  |  |  |  | |\  \  |  | \   \       
                 \___/    |_|  |_| |__|  |__|  |_| \__\ |__|  \__/        
                                                                              
                      - O R C A' S   B I G   F R I E N D -                    
                                      &                                       
                       - I N T E G R A L  F E E D E R -                       
                                                                              
 v1 FN, 2020, v2 2021, v3 2022-2024                                           
------------------------------------------------------------------------------


----------------------
SHARK INTEGRAL PACKAGE
----------------------

Number of atoms                             ...      6
Number of basis functions                   ...     60
Number of shells                            ...     32
Maximum angular momentum                    ...      2
Integral batch strategy                     ... SHARK/LIBINT Hybrid
RI-J (if used) integral strategy            ... SPLIT-RIJ (Revised 2003 algorithm where possible)
Printlevel                                  ...      1
Contraction scheme used                     ... SEGMENTED contraction
Prescreening option                         ... SCHWARTZ
   Thresh                                   ... 2.500e-11
   Tcut                                     ... 2.500e-12
   Tpresel                                  ... 2.500e-12 
Coulomb Range Separation                    ... NOT USED
Exchange Range Separation                   ... NOT USED
Multipole approximations                    ... NOT USED
Finite Nucleus Model                        ... NOT USED
CABS basis                                  ... NOT available
Auxiliary Coulomb fitting basis             ... NOT available
Auxiliary J/K fitting basis                 ... NOT available
Auxiliary Correlation fitting basis         ... NOT available
Auxiliary 'external' fitting basis          ... NOT available

Checking pre-screening integrals            ... done (  0.0 sec) Dimension = 32
   => SHARK Basis and OBASIS are compatible. Storing Pre-screening
Shell pair information
Shell pair cut-off parameter TPreSel        ...   2.5e-12
Total number of shell pairs                 ...       528
Shell pairs after pre-screening             ...       506
Total number of primitive shell pairs       ...      1765
Primitive shell pairs kept                  ...      1383
          la=0 lb=0:    198 shell pairs
          la=1 lb=0:    193 shell pairs
          la=1 lb=1:     54 shell pairs
          la=2 lb=0:     38 shell pairs
          la=2 lb=1:     20 shell pairs
          la=2 lb=2:      3 shell pairs

Checking whether 4 symmetric matrices of dimension 60 fit in memory
:Max Core in MB      =   4096.00
 MB in use           =      1.84
 MB left             =   4094.16
 MB needed           =      0.06
 Data fit in memory  = YES
Calculating Nuclear repulsion               ... done (  0.0 sec) ENN=     36.871910152590 Eh

Diagonalization of the overlap matrix:
Smallest eigenvalue                        ... 1.239e-02
Time for diagonalization                   ...    0.001 sec
Threshold for overlap eigenvalues          ... 1.000e-07
Number of eigenvalues below threshold      ... 0
Time for construction of square roots      ...    0.000 sec
Total time needed                          ...    0.001 sec

-------------------
DFT GRID GENERATION
-------------------

General Integration Accuracy     IntAcc      ... 4.388
Radial Grid Type                 RadialGrid  ... OptM3 with GC (2021)
Angular Grid (max. ang.)         AngularGrid ... 4 (Lebedev-302)
Angular grid pruning method      GridPruning ... 4 (adaptive)
Weight generation scheme         WeightScheme... mBecke (2022)
Basis function cutoff            BFCut       ... 1.0000e-11
Integration weight cutoff        WCut        ... 1.0000e-14
Partially contracted basis set               ... off
Rotationally invariant grid construction     ... off
Angular grids for H and He will be reduced by one unit

Total number of grid points                  ...    25442
Total number of batches                      ...      400
Average number of points per batch           ...       63
Average number of grid points per atom       ...     4240
Grids setup in   0.2 sec
Initializing property integral containers    ... done (  0.0 sec)

SHARK setup successfully completed in   0.3 seconds

Maximum memory used throughout the entire STARTUP-calculation: 9.7 MB
Occupation numbers will be reassigned to an Aufbau configuration
             **** ENERGY FILE WAS UPDATED (/home/vivek/mm/lab5/6-311/water/dimer/dimer.en.tmp) ****
Finished Guess after   0.0 sec
Maximum memory used throughout the entire GUESS-calculation: 4.3 MB
----------------------------------------D-I-I-S--------------------------------------------
Iteration    Energy (Eh)           Delta-E    RMSDP     MaxDP     DIISErr   Damp  Time(sec)
-------------------------------------------------------------------------------------------
               ***  Starting incremental Fock matrix formation  ***
    1    -152.1009924943985538     0.00e+00  5.86e-05  7.20e-04  4.24e-03  0.700   0.1
    2    -152.1010061525654748    -1.37e-05  5.22e-05  6.28e-04  3.31e-03  0.700   0.1
                               ***Turning on AO-DIIS***
                              *** Initializing SOSCF ***
---------------------------------------S-O-S-C-F--------------------------------------
Iteration    Energy (Eh)           Delta-E    RMSDP     MaxDP     MaxGrad    Time(sec)
--------------------------------------------------------------------------------------
    3    -152.1010165438315767    -1.04e-05  1.61e-04  1.94e-03  2.53e-03     0.1
               *** Restarting incremental Fock matrix formation ***
    4    -152.1010449546974712    -2.84e-05  2.51e-05  2.62e-04  1.28e-04     0.1
    5    -152.1010453797049706    -4.25e-07  1.62e-05  1.71e-04  6.66e-05     0.1
    6    -152.1010454583037870    -7.86e-08  2.73e-06  3.37e-05  1.57e-05     0.1
    7    -152.1010454623275336    -4.02e-09  1.03e-06  9.75e-06  3.91e-06     0.1
                 **** Energy Check signals convergence ****

               *****************************************************
               *                     SUCCESS                       *
               *           SCF CONVERGED AFTER   7 CYCLES          *
               *****************************************************

             **** ENERGY FILE WAS UPDATED (/home/vivek/mm/lab5/6-311/water/dimer/dimer.en.tmp) ****

----------------
TOTAL SCF ENERGY
----------------

Total Energy       :       -152.10104546264697 Eh           -4138.87986 eV

Components:
Nuclear Repulsion  :         36.87191015258990 Eh            1003.33568 eV
Electronic Energy  :       -188.97295561523686 Eh           -5142.21555 eV
One Electron Energy:       -283.21445231298765 Eh           -7706.65705 eV
Two Electron Energy:         94.24149669775079 Eh            2564.44150 eV

Virial components:
Potential Energy   :       -304.21077227511029 Eh           -8277.99596 eV
Kinetic Energy     :        152.10972681246332 Eh            4139.11610 eV
Virial Ratio       :          1.99994292705668

---------------
SCF CONVERGENCE
---------------

  Last Energy change         ...    4.0237e-09  Tolerance :   1.0000e-08
  Last MAX-Density change    ...    9.7543e-06  Tolerance :   1.0000e-07
  Last RMS-Density change    ...    1.0319e-06  Tolerance :   5.0000e-09
  Last DIIS Error            ...    2.5266e-03  Tolerance :   5.0000e-07
  Last Orbital Gradient      ...    3.9082e-06  Tolerance :   1.0000e-05
  Last Orbital Rotation      ...    8.1428e-06  Tolerance :   1.0000e-05


Total SCF time: 0 days 0 hours 0 min 0 sec 
Finished LeanSCF after   0.7 sec

Maximum memory used throughout the entire LEANSCF-calculation: 7.9 MB

------------------------------------------------------------------------------
                                ORCA  MP2 
------------------------------------------------------------------------------

Freezing NCore=4 chemical core electrons
MP2 will be done in the AO integral direct mode
The Q1-step will be done using symmetric double matrices
Dimension of the basis                    ...   60
Memory devoted for MP2                    ... 4096 MB   
Memory needed for all in one shot         ...    8 MB
Number of MOs that can be treated together... 4888      
MP2 density construction                  ... relaxed
The MP2 gradient is requested => amplitudes will be stored on disk
Total number of MOs              ...    8
Number of MOs treated per batch  ...    8 
Number of batches necessary      ...    1 
OPERATORS   0/  0 PASS   0
-----------------------------------------------
 MP2 CORRELATION ENERGY   :     -0.437949248 Eh
-----------------------------------------------


---------------------
MP2 DENSITY FORMATION
---------------------

Completing the external part of the density      ... done
Storing the unrelaxed density                    ... done

Calculating G(D)                                 ... done
Completing the Lagrangian                        ... done
Solving the Z-vector equations                   ... 
-------------------
SHARK CP-SCF DRIVER
-------------------

Dimension of the orbital basis          ...     60
Dimension of the CPSCF-problem          ...    500
Number of operators                     ...      1
Max. number of iterations               ...    128
Convergence Tolerance                   ... 1.0e-04
Number of perturbations                 ...      1
Perturbation type                       ... REAL

----------------------------
POPLE LINEAR EQUATION SOLVER
----------------------------

  ITERATION   0:   ||err||_max =   3.1762e-02 (   0.1 sec)
  ITERATION   1:   ||err||_max =   9.2706e-03 (   0.1 sec)
  ITERATION   2:   ||err||_max =   1.6805e-03 (   0.1 sec)
  ITERATION   3:   ||err||_max =   2.0346e-04 (   0.1 sec)
  ITERATION   4:   ||err||_max =   4.9200e-05 (   0.1 sec)
                                                 ... done
Finalizing the relaxed density                   ... done
Transforming P to the AO basis                   ... done
Storing the relaxed density                      ... done

------------------------------------
ENERGY WEIGHTED DENSITY FINALIZATION
------------------------------------

Gathering the parts of the W-matrix              ...                                                      done
Forming the Z-density                            ... done
Transforming Z to the AO basis                   ... done
Calculating G(Z)                                 ... done
Finalizing the W-matrix                          ...                                                      done
Transforming W to the AO basis and storing       ... done

----------------------------------
MP2 DERIVATIVE INTEGRAL GENERATION
----------------------------------

Input SCF Electron Density              ... /home/vivek/mm/lab5/6-311/water/dimer/dimer.scfp
Input Correlated Electron Density       ... /home/vivek/mm/lab5/6-311/water/dimer/dimer.pmp2re
Input Energy Weighted Density           ... /home/vivek/mm/lab5/6-311/water/dimer/dimer.wmp2.tmp
Input Wavefunction Amplitudes           ... /home/vivek/mm/lab5/6-311/water/dimer/dimer.mp2tsaa.tmp

Nuclear repulsion gradient              ... done (  0.0 sec)
HCore & Overlap gradient  (SHARK)       ... done (  0.0 sec)
Analytic two-electron gradient terms    ... 
  Batch handling in the gradient evaluation:
  General contraction                   ... not used
  Memory available                      ... 4093.4 MB
  Memory per occupied orbital in Q2     ...    0.2 MB
  Memory per occupied orbital in Q3     ...    0.0 MB
  Total memory requirement per |i>      ...    0.2 MB
  Number of orbitals treated per batch  ...      8
  Number of batches to be done          ...      1
done (  0.5 sec)

---------------------------------------
MP2 TOTAL ENERGY:     -152.538994711 Eh
---------------------------------------

The final MP2 gradient
  0:   0.00156937  -0.00013937   0.00227571
  1:  -0.00080597  -0.00005983  -0.00106498
  2:  -0.00080764   0.00059218  -0.00145236
  3:  -0.00019284   0.00163761  -0.00099560
  4:  -0.00029909  -0.00091031   0.00094387
  5:   0.00053618  -0.00112028   0.00029336

-----------------------------------
NORM OF THE MP2 GRADIENT:  0.004439
-----------------------------------

Maximum memory used throughout the entire MP2-calculation: 15.9 MB

-------------------------   --------------------
FINAL SINGLE POINT ENERGY      -152.538994711105
-------------------------   --------------------

------------------------------------------------------------------------------
                         ORCA GEOMETRY RELAXATION STEP
------------------------------------------------------------------------------

Reading the OPT-File                    .... done
Getting information on internals        .... done
Copying old internal coords+grads       .... done
Making the new internal coordinates     .... (2022 redundants) done
Validating the new internal coordinates .... (2022 redundants) done
Calculating the B-matrix                .... done
Calculating the G,G- and P matrices     .... done
Transforming gradient to internals      .... done
Projecting the internal gradient        .... done
Number of atoms                         ....   6
Number of internal coordinates          ....  32
Current Energy                          ....  -152.538994711 Eh
[...]
 
Rotational constants in cm-1:             7.030706             0.217010             0.216626 
Rotational constants in MHz :        210775.266397          6505.806546          6494.294790 

Dipole components along the rotational axes: 
x,y,z [a.u.] :    -1.107751    -0.014610    -0.055755 
x,y,z [Debye]:    -2.815679    -0.037136    -0.141719 

 

Dipole moment calculation done in   0.1 sec 

Maximum memory used throughout the entire PROP-calculation: 3.4 MB

----------------------------------------------------------------------------
                           ORCA NUMERICAL FREQUENCIES
----------------------------------------------------------------------------

Number of atoms                ... 6
Central differences            ... used
Translation invariance         ... used
Number of displacements        ... 36 - 6
Numerical increment            ... 5.000e-03 bohr
IR-spectrum generation         ... on
Raman-spectrum generation      ... off
Surface Crossing Hessian       ... off

The output will be reduced. Please look at the following files:
SCF program output             ... >/home/vivek/mm/lab5/6-311/water/dimer/dimer.lastscf
Integral program output        ... >/home/vivek/mm/lab5/6-311/water/dimer/dimer.lastint
Gradient program output        ... >/home/vivek/mm/lab5/6-311/water/dimer/dimer.lastgrad
Dipole moment program output   ... >/home/vivek/mm/lab5/6-311/water/dimer/dimer.lastmom

	<< Calculating gradient on displaced geometry   1 (of  30) >>
	<< Calculating gradient on displaced geometry   2 (of  30) >>
	<< Calculating gradient on displaced geometry   3 (of  30) >>
	<< Calculating gradient on displaced geometry   4 (of  30) >>
	<< Calculating gradient on displaced geometry   5 (of  30) >>
	<< Calculating gradient on displaced geometry   6 (of  30) >>
	<< Calculating gradient on displaced geometry   7 (of  30) >>
	<< Calculating gradient on displaced geometry   8 (of  30) >>
	<< Calculating gradient on displaced geometry   9 (of  30) >>
	<< Calculating gradient on displaced geometry  10 (of  30) >>
	<< Calculating gradient on displaced geometry  11 (of  30) >>
	<< Calculating gradient on displaced geometry  12 (of  30) >>
	<< Calculating gradient on displaced geometry  13 (of  30) >>
	<< Calculating gradient on displaced geometry  14 (of  30) >>
	<< Calculating gradient on displaced geometry  15 (of  30) >>
	<< Calculating gradient on displaced geometry  16 (of  30) >>
	<< Calculating gradient on displaced geometry  17 (of  30) >>
	<< Calculating gradient on displaced geometry  18 (of  30) >>
	<< Calculating gradient on displaced geometry  19 (of  30) >>
	<< Calculating gradient on displaced geometry  20 (of  30) >>
	<< Calculating gradient on displaced geometry  21 (of  30) >>
	<< Calculating gradient on displaced geometry  22 (of  30) >>
	<< Calculating gradient on displaced geometry  23 (of  30) >>
	<< Calculating gradient on displaced geometry  24 (of  30) >>
	<< Calculating gradient on displaced geometry  25 (of  30) >>
	<< Calculating gradient on displaced geometry  26 (of  30) >>
	<< Calculating gradient on displaced geometry  27 (of  30) >>
	<< Calculating gradient on displaced geometry  28 (of  30) >>
	<< Calculating gradient on displaced geometry  29 (of  30) >>
	<< Calculating gradient on displaced geometry  30 (of  30) >>

-----------------------
VIBRATIONAL FREQUENCIES
-----------------------

Scaling factor for frequencies =  1.000000000  (already applied!)

     0:       0.00 cm**-1
     1:       0.00 cm**-1
     2:       0.00 cm**-1
     3:       0.00 cm**-1
     4:       0.00 cm**-1
     5:       0.00 cm**-1
     6:      82.35 cm**-1
     7:     150.06 cm**-1
     8:     161.18 cm**-1
     9:     190.48 cm**-1
    10:     383.58 cm**-1
    11:     652.62 cm**-1
    12:    1657.41 cm**-1
    13:    1702.94 cm**-1
    14:    3835.78 cm**-1
    15:    3892.66 cm**-1
    16:    3983.90 cm**-1
    17:    3998.52 cm**-1


------------
NORMAL MODES
------------

These modes are the Cartesian displacements weighted by the diagonal matrix
M(i,i)=1/sqrt(m[i]) where m[i] is the mass of the displaced atom
Thus, these vectors are normalized but *not* orthogonal

                  0          1          2          3          4          5    
      0       0.000000   0.000000   0.000000   0.000000   0.000000   0.000000
      1       0.000000   0.000000   0.000000   0.000000   0.000000   0.000000
      2       0.000000   0.000000   0.000000   0.000000   0.000000   0.000000
      3       0.000000   0.000000   0.000000   0.000000   0.000000   0.000000
      4       0.000000   0.000000   0.000000   0.000000   0.000000   0.000000
      5       0.000000   0.000000   0.000000   0.000000   0.000000   0.000000
      6       0.000000   0.000000   0.000000   0.000000   0.000000   0.000000
      7       0.000000   0.000000   0.000000   0.000000   0.000000   0.000000
      8       0.000000   0.000000   0.000000   0.000000   0.000000   0.000000
      9       0.000000   0.000000   0.000000   0.000000   0.000000   0.000000
     10       0.000000   0.000000   0.000000   0.000000   0.000000   0.000000
     11       0.000000   0.000000   0.000000   0.000000   0.000000   0.000000
     12       0.000000   0.000000   0.000000   0.000000   0.000000   0.000000
     13       0.000000   0.000000   0.000000   0.000000   0.000000   0.000000
     14       0.000000   0.000000   0.000000   0.000000   0.000000   0.000000
     15       0.000000   0.000000   0.000000   0.000000   0.000000   0.000000
     16       0.000000   0.000000   0.000000   0.000000   0.000000   0.000000
     17       0.000000   0.000000   0.000000   0.000000   0.000000   0.000000
                  6          7          8          9         10         11    
      0      -0.000154  -0.016601  -0.033095   0.232347   0.016251   0.023583
      1      -0.012758  -0.021658   0.047855   0.349931   0.013464  -0.013249
      2      -0.003846   0.011754   0.034991   0.065433   0.014130  -0.015823
      3       0.355204   0.327637   0.478902   0.028765  -0.367431  -0.043416
      4      -0.157509   0.275413  -0.316635   0.354072  -0.398118   0.021463
      5      -0.201465   0.179971  -0.377827   0.112096  -0.242364   0.027319
      6      -0.332884  -0.098305   0.121818   0.180777   0.171339  -0.684828
      7       0.181350   0.161539  -0.061083   0.348957  -0.225950   0.371124
      8       0.171254  -0.400818   0.015488   0.189427   0.434644   0.454410
      9      -0.030150  -0.037183  -0.006001  -0.225980  -0.035261   0.031647
     10       0.012839  -0.039595  -0.010385  -0.356780  -0.006205  -0.013003
     11       0.014350  -0.036606   0.003980  -0.083571  -0.056847  -0.018622
     12       0.426497   0.209253  -0.277985  -0.040337   0.232462  -0.206037
     13       0.455808   0.180039  -0.239561  -0.190267   0.228467  -0.239221
     14      -0.031995   0.210559  -0.479803   0.116919   0.238845  -0.025632
     15       0.032174   0.415077   0.297790  -0.270255   0.265362   0.057659
     16      -0.480944   0.355224   0.022561  -0.404062   0.280394   0.263303
     17      -0.104505   0.404743   0.223602  -0.130546   0.246886   0.090606
                 12         13         14         15         16         17    
      0       0.004132   0.039368   0.034663  -0.007072  -0.003625  -0.000015
      1       0.001465   0.006181   0.031612  -0.004054  -0.053855   0.000106
      2       0.005267   0.054021   0.026323  -0.007338   0.038350  -0.000099
      3      -0.036837  -0.412251  -0.032743   0.013701  -0.144653   0.000268
      4      -0.038901  -0.427556   0.232113  -0.078026   0.600230  -0.001504
      5      -0.024891  -0.269066  -0.237931   0.084026  -0.705160   0.001813
      6      -0.019978  -0.226392  -0.518080   0.099429   0.202096   0.000893
      7       0.026500   0.345813  -0.735836   0.146202   0.254527  -0.000638
      8      -0.054916  -0.624955  -0.178855   0.031423   0.096190  -0.000905
      9       0.007071   0.001631  -0.001321  -0.006072  -0.000135   0.054994
     10      -0.056173   0.005354   0.008679   0.039170   0.001824  -0.020127
     11       0.041227   0.000155  -0.006652  -0.029476  -0.001446  -0.037619
     12       0.282024  -0.036601   0.105427   0.495860   0.023294  -0.485575
     13       0.314116  -0.037343  -0.103220  -0.480329  -0.022016   0.505021
     14      -0.562709   0.038145  -0.011957  -0.068850  -0.004064   0.033649
     15      -0.403026   0.024510  -0.083820  -0.400374  -0.021063  -0.388207
     16       0.566615  -0.063997  -0.032544  -0.145219  -0.006903  -0.185106
     17      -0.095447  -0.003993   0.116522   0.537712   0.027279   0.564107


-----------
IR SPECTRUM
-----------

 Mode   freq       eps      Int      T**2         TX        TY        TZ
       cm**-1   L/(mol*cm) km/mol    a.u.
----------------------------------------------------------------------------
  6:     82.35   0.008711   44.02  0.033011  ( 0.172450  0.009910 -0.056333)
  7:    150.06   0.059605  301.22  0.123958  ( 0.220119  0.255846  0.100242)
  8:    161.18   0.033392  168.75  0.064653  ( 0.147550 -0.145044 -0.147798)
  9:    190.48   0.001087    5.49  0.001780  ( 0.002393  0.031603  0.027855)
 10:    383.58   0.016228   82.01  0.013203  ( 0.047161 -0.016330  0.103498)
 11:    652.62   0.030625  154.77  0.014644  (-0.092503  0.049853  0.060015)
 12:   1657.41   0.012851   64.94  0.002420  (-0.008395  0.036515 -0.031871)
 13:   1702.94   0.008400   42.45  0.001539  (-0.023513 -0.007334 -0.030538)
 14:   3835.78   0.045665  230.77  0.003715  (-0.029933 -0.052640 -0.006940)
 15:   3892.66   0.002452   12.39  0.000197  ( 0.006119 -0.006162  0.011006)
 16:   3983.90   0.012933   65.36  0.001013  ( 0.010692  0.029282 -0.006428)
 17:   3998.52   0.011778   59.52  0.000919  (-0.023856  0.008898  0.016460)

* The epsilon (eps) is given for a Dirac delta lineshape.
** The dipole moment derivative (T) already includes vibrational overlap.

The first frequency considered to be a vibration is 6
The total number of vibrations considered is 12


--------------------------
THERMOCHEMISTRY AT 298.15K
--------------------------

Temperature         ...   298.15 K
Pressure            ...     1.00 atm
Total Mass          ...    36.03 AMU
Quasi RRHO          ...     True
Cut-Off Frequency   ...     1.00 cm^-1

Throughout the following assumptions are being made:
  (1) The electronic state is orbitally nondegenerate
  (2) There are no thermally accessible electronically excited states
  (3) Hindered rotations indicated by low frequency modes are not
      treated as such but are treated as vibrations and this may
      cause some error
  (4) All equations used are the standard statistical mechanics
      equations for an ideal gas
  (5) All vibrations are strictly harmonic

freq.      82.35  E(vib)   ...       0.48 
freq.     150.06  E(vib)   ...       0.40 
freq.     161.18  E(vib)   ...       0.39 
freq.     190.48  E(vib)   ...       0.36 
freq.     383.58  E(vib)   ...       0.20 
freq.     652.62  E(vib)   ...       0.08 
freq.    1657.41  E(vib)   ...       0.00 
freq.    1702.94  E(vib)   ...       0.00 
freq.    3835.78  E(vib)   ...       0.00 
freq.    3892.66  E(vib)   ...       0.00 
freq.    3983.90  E(vib)   ...       0.00 
freq.    3998.52  E(vib)   ...       0.00 

------------
INNER ENERGY
------------

The inner energy is: U= E(el) + E(ZPE) + E(vib) + E(rot) + E(trans)
    E(el)   - is the total energy from the electronic structure calculation
              = E(kin-el) + E(nuc-el) + E(el-el) + E(nuc-nuc)
    E(ZPE)  - the the zero temperature vibrational energy from the frequency calculation
    E(vib)  - the the finite temperature correction to E(ZPE) due to population
              of excited vibrational states
    E(rot)  - is the rotational thermal energy
    E(trans)- is the translational thermal energy

Summary of contributions to the inner energy U:
Electronic energy                ...   -152.53914650 Eh
Zero point energy                ...      0.04713864 Eh      29.58 kcal/mol
Thermal vibrational correction   ...      0.00307578 Eh       1.93 kcal/mol
Thermal rotational correction    ...      0.00141627 Eh       0.89 kcal/mol
Thermal translational correction ...      0.00141627 Eh       0.89 kcal/mol
-----------------------------------------------------------------------
Total thermal energy                   -152.48609955 Eh


Summary of corrections to the electronic energy:
(perhaps to be used in another calculation)
Total thermal correction                  0.00590832 Eh       3.71 kcal/mol
Non-thermal (ZPE) correction              0.04713864 Eh      29.58 kcal/mol
-----------------------------------------------------------------------
Total correction                          0.05304696 Eh      33.29 kcal/mol


--------
ENTHALPY
--------

The enthalpy is H = U + kB*T
                kB is Boltzmann's constant
Total thermal energy              ...   -152.48609955 Eh 
Thermal Enthalpy correction       ...      0.00094421 Eh       0.59 kcal/mol
-----------------------------------------------------------------------
Total Enthalpy                    ...   -152.48515534 Eh


Note: Only C1 symmetry has been detected, increase convergence thresholds 
      if your molecule has a higher symmetry. Symmetry factor of 1.0 is   
      used for the rotational entropy correction. 
 

Note: Rotational entropy computed according to Herzberg 
Infrared and Raman Spectra, Chapter V,1, Van Nostrand Reinhold, 1945 
Point Group:  C1, Symmetry Number:   1  
Rotational constants in cm-1:     7.030712     0.217011     0.216627 

Vibrational entropy computed according to the QRRHO of S. Grimme
Chem.Eur.J. 2012 18 9955 using a reference frequency of 100.0 cm-1


-------
ENTROPY
-------

The entropy contributions are T*S = T*(S(el)+S(vib)+S(rot)+S(trans))
     S(el)   - electronic entropy
     S(vib)  - vibrational entropy
     S(rot)  - rotational entropy
     S(trans)- translational entropy
The entropies will be listed as multiplied by the temperature to get
units of energy

Electronic entropy                ...      0.00000000 Eh      0.00 kcal/mol
Vibrational entropy               ...      0.00573599 Eh      3.60 kcal/mol
Rotational entropy                ...      0.01003346 Eh      6.30 kcal/mol
Translational entropy             ...      0.01742549 Eh     10.93 kcal/mol
-----------------------------------------------------------------------
Final entropy term                ...      0.03319493 Eh     20.83 kcal/mol

In case the symmetry of your molecule has not been determined correctly
or in case you have a reason to use a different symmetry number we print 
out the resulting rotational entropy values for sn=1,12:

 non-linear molecules -----------------------------------
|  sn= 1 | S(rot)=       0.01003346 Eh      6.30 kcal/mol|
|  sn= 2 | S(rot)=       0.00937901 Eh      5.89 kcal/mol|
|  sn= 3 | S(rot)=       0.00899617 Eh      5.65 kcal/mol|
|  sn= 4 | S(rot)=       0.00872455 Eh      5.47 kcal/mol|
|  sn= 5 | S(rot)=       0.00851386 Eh      5.34 kcal/mol|
|  sn= 6 | S(rot)=       0.00834172 Eh      5.23 kcal/mol|
|  sn= 7 | S(rot)=       0.00819617 Eh      5.14 kcal/mol|
|  sn= 8 | S(rot)=       0.00807009 Eh      5.06 kcal/mol|
|  sn= 9 | S(rot)=       0.00795888 Eh      4.99 kcal/mol|
|  sn=10 | S(rot)=       0.00785941 Eh      4.93 kcal/mol|
|  sn=11 | S(rot)=       0.00776942 Eh      4.88 kcal/mol|
|  sn=12 | S(rot)=       0.00768726 Eh      4.82 kcal/mol|
 linear molecules ---------------------------------------
|  Dinfh | S(rot)=       0.00677001 Eh      4.25 kcal/mol|
|  Cinfv | S(rot)=       0.00742446 Eh      4.66 kcal/mol|
 --------------------------------------------------------


-------------------
GIBBS FREE ENERGY
-------------------

The Gibbs free energy is G = H - T*S

Total enthalpy                    ...   -152.48515534 Eh 
Total entropy correction          ...     -0.03319493 Eh    -20.83 kcal/mol
-----------------------------------------------------------------------
Final Gibbs free energy         ...   -152.51835027 Eh

For completeness - the Gibbs free energy minus the electronic energy
G-E(el)                           ...      0.02079623 Eh     13.05 kcal/mol



--------------------------------
SUGGESTED CITATIONS FOR THIS RUN
--------------------------------

Below you find a list of papers that are relevant to this ORCA run
We neither can nor want to force you to cite these papers, but we appreciate if you do
You receive ORCA, which is the product of decades of hard work by many enthusiastic individuals, for free
The only thing we kindly ask in return is that you cite our papers,
We deeply appreciate it, if you show your appreciation for ORCA by not just citing the generic ORCA reference.

Please note that relegating all ORCA citations to the supporting information does *not* help us.
SI sections are not indexed - citations you put there will not count into any citation statistics
But we need these citations in order to attract the funding resources that allow us to do what we are doing

Therefore, if you are a happy ORCA user, please consider citing a few of the papers listed below in the main body of your paper

In addition to the list printed below, the program has created the file /home/vivek/mm/lab5/6-311/water/dimer/dimer.bibtex that contains the list in bibtex format
You can import this file easily into all common literature databanks and citation aid programs


List of essential papers. We consider these as the minimum necessary citations

  1. Neese, F.
     Software update: the ORCA program system, version 6.0
     WIRES Comput. Molec. Sci. 2025 15(1), e70019
     doi.org/10.1002/wcms.7019

List of papers to cite with high priority. The work reported in these papers was absolutely
necessary for this run to complete.
Our perspective: the developers of density functionals and basis sets usually get cited in chemistry papers
Good! But without the algorithms to do something with them, the functionals or basis sets would not do anything.
Hence, in our opinion, the algorithm design and method developments papers are equally worthy of getting cited

  1. Neese, F.
     The SHARK Integral Generation and Digestion System
     J. Comp. Chem. 2022 44(3), 381
     doi.org/10.1002/jcc.26942

List of suggested additional citations. These are papers that are important in the 'surrounding' of 
of this run, or papers that preceded the highly important papers. If you like your results we are grateful for a citation.

  1. Neese, F.
     The ORCA program system
     WIRES Comput. Molec. Sci. 2012 2(1), 73-78
     doi.org/10.1002/wcms.81
  2. Neese, F.
     Software update: the ORCA program system, version 4.0
     WIRES Comput. Molec. Sci. 2018 8(1), 1-6
     doi.org/10.1002/wcms.1327
  3. Neese, F.; Wennmohs, F.; Becker, U.; Riplinger, C.
     The ORCA quantum chemistry program package
     J. Chem. Phys. 2020 152(22), 224108
     doi.org/10.1063/5.0004608
  4. Neese, F.
     Software update: The ORCA program system—Version 5.0
     WIRES Comput. Molec. Sci. 2022 12(1), e1606
     doi.org/10.1002/wcms.1606

List of optional additional citations

  1. Neese, F.
     Approximate second-order SCF convergence for spin unrestricted wavefunctions
     Chem. Phys. Lett. 2000 325(1-3), 93-98
     doi.org/10.1016/s0009-2614(00)00662-x

Timings for individual modules:

Sum of individual times          ...      673.868 sec (=  11.231 min)
Startup calculation              ...       11.738 sec (=   0.196 min)   1.7 %
SCF iterations                   ...      120.417 sec (=   2.007 min)  17.9 %
Property calculations            ...        0.158 sec (=   0.003 min)   0.0 %
MP2 module                       ...      120.923 sec (=   2.015 min)  17.9 %
Geometry relaxation              ...       13.977 sec (=   0.233 min)   2.1 %
Numerical frequency calculation  ...      406.655 sec (=   6.778 min)  60.3 %
                             ****ORCA TERMINATED NORMALLY****
TOTAL RUN TIME: 0 days 0 hours 11 minutes 28 seconds 304 msec
