
                                 *****************
                                 * O   R   C   A *
                                 *****************

                                            #,                                       
                                            ###                                      
                                            ####                                     
                                            #####                                    
                                            ######                                   
                                           ########,                                 
                                     ,,################,,,,,                         
                               ,,#################################,,                 
                          ,,##########################################,,             
                       ,#########################################, ''#####,          
                    ,#############################################,,   '####,        
                  ,##################################################,,,,####,       
                ,###########''''           ''''###############################       
              ,#####''   ,,,,##########,,,,          '''####'''          '####       
            ,##' ,,,,###########################,,,                        '##       
           ' ,,###''''                  '''############,,,                           
         ,,##''                                '''############,,,,        ,,,,,,###''
      ,#''                                            '''#######################'''  
     '                                                          ''''####''''         
             ,#######,   #######,   ,#######,      ##                                
            ,#'     '#,  ##    ##  ,#'     '#,    #''#        ,####,    ,#,          
            ##       ##  ##   ,#'  ##            #'  '#       #'       ,# #          
            ##       ##  #######   ##           ,######,      #####,      #          
            '#,     ,#'  ##    ##  '#,     ,#' ,#      #,     #,   #      #          
             '#######'   ##     ##  '#######'  #'      '#     '####' #    #          



                #########################################################
                #                        -***-                          #
                #          Department of theory and spectroscopy        #
                #                                                       #
                #                      Frank Neese                      #
                #                                                       #
                #     Directorship, Architecture, Infrastructure        #
                #                    SHARK, DRIVERS                     #
                #        Core code/Algorithms in most modules           #
                #                                                       #
                #        Max Planck Institute fuer Kohlenforschung      #
                #                Kaiser Wilhelm Platz 1                 #
                #                 D-45470 Muelheim/Ruhr                 #
                #                      Germany                          #
                #                                                       #
                #                  All rights reserved                  #
                #                        -***-                          #
                #########################################################


                         Program Version 6.1.0  -  RELEASE   -
                                (GIT: $679e74b$)
                          ($2025-06-10 18:02:51 +0200$)


 With contributions from (in alphabetic order):
[Max-Planck-Institut fuer Kohlenforschung]                               
  Daniel Aravena         : Magnetic Suceptibility                        
  Michael Atanasov       : Ab Initio Ligand Field Theory (pilot matlab implementation)
  Alexander A. Auer      : GIAO ZORA, VPT2 properties, NMR spectrum      
  Ute Becker             : All parallelization in ORCA, NUMFREQ, NUMCALC 
  Giovanni Bistoni       : ED, misc. LED, open-shell LED, HFLD           
  Dmytro Bykov           : pre 5.0 version of the SCF Hessian            
  Marcos Casanova-Páez   : Triplet and SCS-CIS(D). UHF-(DLPNO)-IP/EA/STEOM-CCSD. UHF-CVS-IP/STEOM-CCSD   
  Vijay G. Chilkuri      : MRCI spin determinant printing, contributions to CSF-ICE 
  Pauline Colinet        : FMM embedding                                 
  Dipayan Datta          : RHF DLPNO-CCSD density                        
  Achintya Kumar Dutta   : EOM-CC, STEOM-CC                              
  Nicolas Foglia         : Exact transition moments, OPA infrastructure, MCD improvements    
  Dmitry Ganyushin       : Spin-Orbit,Spin-Spin,Magnetic field MRCI      
  Miquel Garcia-Rates    : C-PCM and meta-GGA Hessian, CCSD/C-PCM, Gaussian charge scheme 
  Tiago L. C. Gouveia    : GS-ROHF, GS-ROCIS                             
  Yang Guo               : DLPNO-NEVPT2, F12-NEVPT2, CIM, IAO-localization        
  Andreas Hansen         : Spin unrestricted coupled pair/coupled cluster methods 
  Ingolf Harden          : AUTO-CI MPn and infrastructure                
  Benjamin Helmich-Paris : MC-RPA, TRAH-(SCF,CASSCF), AVAS, COSX integrals, SCF dyn. polar., MC-PDFT, srDFT 
  Lee Huntington         : MR-EOM, pCC                                   
  Robert Izsak           : Overlap fitted RIJCOSX, COSX-SCS-MP3, EOM     
  Riya Kayal             : Wick's Theorem for AUTO-CI, AUTO-CI UHF-CCSDT 
  Emily Kempfer          : AUTO-CI RHF CISDT and CCSDT, approximate NEVPT4
  Christian Kollmar      : KDIIS, OOCD, Brueckner-CCSD(T), CCSD density, CASPT2, CASPT2-K, improved NEVPT2 
  Axel Koslowski         : Symmetry handling                             
  Simone Kossmann        : meta-GGA functionals, TD-DFT gradient, OOMP2, (MP2 Hessian; deprecated post 5.0) 
  Lucas Lang             : DCDCAS, Hyperfine gauge corrections, ICE-SOC+SSC
  Marvin Lechner         : AUTO-CI (C++ implementation), FIC-MRCC        
  Spencer Leger          : CASSCF response                               
  Dagmar Lenk            : GEPOL surface, SMD, ORCA-2-JSON               
  Dimitrios Liakos       : Extrapolation schemes; Compound Job, Property file
  Dimitrios Manganas     : Further ROCIS development; embedding schemes. LFT, Crystal Embedding 
  Dimitrios Pantazis     : SARC Basis sets                               
  Anastasios Papadopoulos: AUTO-CI, single reference methods and gradients 
  Taras Petrenko         : pre 6.0 DFT Hessian and TD-DFT gradient,  ECA, NRVS 
  Petra Pikulova         : Analytic Raman intensities                    
  Peter Pinski           : DLPNO-MP2, DLPNO-MP2 Gradient                 
  Shashank Vittal Rao    : ES-AILFT, MagRelax                            
  Christoph Reimann      : Effective Core Potentials                     
  Marius Retegan         : Local ZFS, SOC                                
  Christoph Riplinger    : Optimizer, TS searches, QM/MM, DLPNO-CCSD(T), (RO)-DLPNO pert. Triples 
  Michael Roemelt        : Original ROCIS implementation, recursive CI coupling coefficients
  Masaaki Saitow         : Open-shell DLPNO-CCSD energy and density      
  Barbara Sandhoefer     : DKH picture change effects                    
  Yorick L. A. Schmerwitz: GMF and freeze-and-release deltaSCF, NEB S-IDPP initial path                    
  Kantharuban Sivalingam : CASSCF convergence/infrastructure, NEVPT2, NEVPT3, NEVPT4(SD), FIC-MRCI and CEPA variants
  Bernardo de Souza      : ESD, SOC TD-DFT                               
  Georgi L. Stoychev     : AutoAux, RI-MP2 NMR, DLPNO-MP2 response, X2C  
  Van Anh Tran           : RI-MP2 g-tensors                              
  Willem Van den Heuvel  : Paramagnetic NMR                              
  Zikuan Wang            : NOTCH, Electric field optimization            
  Frank Wennmohs         : Technical directorship and infrastructure     
  Hang Xu                : AUTO-CI-Response properties                   
                                                                         
[FACCTs GmbH]                                                            
  Markus Bursch, Nicolas Foglia, Miquel Garcia-Rates, Ingolf Harden, Hagen Neugebauer, Anastasios Papadopoulos, 
  Christoph Riplinger, Bernardo de Souza, Georgi L. Stoychev                                                    
                                                                 
  APM, various basis sets, CI-OPT, improved COSX, DLPNO-Multilevel,           
  DOCKER, DRACO, updates on ESD, Fragmentator, GOAT, IRC, LR-CPCM, L-BFGS, MBIS, meta-GGA TD-DFT gradient, ML-optimized integration grids, 
  MM, NACMEs, nearIR, NEB, NEB-TS, NL-DFT gradient (VV10), 2- and 3-layer-ONIOM, interface openCOSMO-RS, QMMM,   
  Crystal-QMMM, RESP, rigid body optimization, SF, symmetry and pop. for TD-DFT, various functionals, SOLVATOR                                   
                                                                         
[Other institutions]                                                     
  V. Asgeirsson          : NEB                                           
  Christoph Bannwarth    : sTDA-DFT, sTD-DFT, PBEh-3c, B97-3c, D3        
  Giovanni Bistoni       : ETS/NOCV, ADLD/ADEX, COVALED                  
  Martin Brehm           : Molecular dynamics                            
  Ronald Cardenas        : ETS/NOCV                                      
  Martina Colucci        : COVALED                                       
  Sebastian Ehlert       : rSCAN, r2SCAN, r2SCAN-3c, D4, dhf basis sets  
  Marvin Friede          : D4 for Fr, Ra, Ac-Lr                          
  Lars Goerigk           : TD-DFT with DH, B97 family of functionals     
  Stefan Grimme          : VdW corrections, initial TS optimization, DFT functionals, gCP, sTDA/sTD-DF 
  Waldemar Hujo          : DFT-NL                                        
  H. Jonsson             : NEB                                           
  Holger Kruse           : gCP                                           
  Marcel Mueller         : wB97X-3c, vDZP basis set                      
  Hagen Neugebauer       : wr2SCAN, Native XTB                           
  Gianluca Regni         : ADLD/ADEX                                     
  Tobias Risthaus        : pre 6.0 range-separated hybrid DFT and stability analysis
  Lukas Wittmann         : regularized MP2, r2SCAN double-hybrids, wr2SCAN        
                                                                         
We gratefully acknowledge several colleagues who have allowed us to      
interface, adapt or use parts of their codes:                            
  Ed Valeev, F. Pavosevic, A. Kumar             : LibInt (2-el integral package), F12 methods 
  Garnet Chan, S. Sharma, J. Yang, R. Olivares  : DMRG                   
  Ulf Ekstrom                                   : XCFun DFT Library      
  Mihaly Kallay                                 : mrcc  (arbitrary order and MRCC methods)
  Frank Weinhold                                : gennbo (NPA and NBO analysis)           
  Simon Mueller                                 : openCOSMO-RS                            
  Christopher J. Cramer and Donald G. Truhlar   : smd solvation model                     
  S Lehtola, MJT Oliveira, MAL Marques          : LibXC Library                           
  Liviu Ungur et al                             : ANISO software                          


 Your calculation uses the libint2 library for the computation of 2-el integrals
 For citations please refer to: http://libint.valeyev.net

 Your ORCA version has been built with support for libXC version: 7.0.0
 For citations please refer to: https://libxc.gitlab.io

 This ORCA versions uses:
   CBLAS   interface :  Fast vector & matrix operations
   LAPACKE interface :  Fast linear algebra routines
   SCALAPACK package :  Parallel linear algebra routines
   Shared memory     :  Shared parallel matrices
   BLAS/LAPACK       :  OpenBLAS 0.3.29  USE64BITINT DYNAMIC_ARCH NO_AFFINITY Haswell SINGLE_THREADED
        Core in use  :  Haswell
   Copyright (c) 2011-2014, The OpenBLAS Project


  ***********************************
  * Starting time: Thu Aug 14 01:37:46 2025
  * Host name:     CHEMLAB02
  * Process ID:    1545881
  * Working dir.:  /home/vivek/mm/lab5/nh3/dimer
  ***********************************



***************************************
The coordinates will be read from file: dimer-input-coordinates.xyz
***************************************


================================================================================

----- Orbital basis set information -----
Your calculation utilizes the basis: 6-31G**
   H-He, Li-Ne : W. J. Hehre, R. Ditchfield and J.A. Pople, J. Chem. Phys. 56, 2257 (1972).
                 Note: He and Ne are unpublished basis sets taken from the Gaussian program.
                 Note: Li and B from J. D. Dill and J. A. Pople, J. Chem. Phys. 62, 2921 (1975).
   Na - Ar     : M. M. Francl, W. J. Pietro, W. J. Hehre, J. S. Binkley, M. S. Gordon, 
                 D. J. DeFrees and J. A. Pople, J. Chem. Phys. 77, 3654 (1982).
   K - Zn      : V. A. Rassolov, J. A. Pople, M. A. Ratner, and T. L. Windus, J. Chem. Phys. 109, 1223 (1998).

================================================================================
                                        WARNINGS
                       Please study these warnings very carefully!
================================================================================


WARNING: The frozen-core approximation for MP2-gradient calculations is turned on by default.

WARNING: Geometry Optimization
  ===> : Switching off AutoStart
         For restart on a previous wavefunction, please use MOREAD

WARNING: Post HF methods need fully converged wavefunctions
  ===> : Setting SCFConvForced true
         You can overwrite this default with %scf ConvForced false 


================================================================================
                                       INPUT FILE
================================================================================
NAME = dimer.inp
|  1> ! MP2 6-31G** opt numfreq
|  2> 
|  3> * xyzfile 0 1 dimer-input-coordinates.xyz
|  4> 
|  5>                          ****END OF INPUT****
================================================================================

                       *****************************
                       * Geometry Optimization Run *
                       *****************************

Geometry optimization settings:
Update method            Update   .... BFGS
Choice of coordinates    CoordSys .... (2022) Redundant Internals
Initial Hessian          InHess   .... Almloef's Model
Max. no of cycles        MaxIter  .... 50

Convergence Tolerances:
Energy Change            TolE     ....  5.0000e-06 Eh
Max. Gradient            TolMAXG  ....  3.0000e-04 Eh/bohr
RMS Gradient             TolRMSG  ....  1.0000e-04 Eh/bohr
Max. Displacement        TolMAXD  ....  4.0000e-03 bohr
RMS Displacement         TolRMSD  ....  2.0000e-03 bohr
Strict Convergence                .... False

------------------------------------------------------------------------------
                        ORCA OPTIMIZATION COORDINATE SETUP
------------------------------------------------------------------------------

The optimization will be done in redundant internal coordinates (2022)
Making redundant internal coordinates   ...  (2022 redundants) done
Evaluating the initial hessian          ...  (Almloef) done
Evaluating the coordinates              ...  done
Calculating the B-matrix                .... done
Calculating the G-matrix                .... done
The number of degrees of freedom        ....   47

    -----------------------------------------------------------------
                    Redundant Internal Coordinates


    -----------------------------------------------------------------
         Definition                    Initial Value    Approx d2E/dq
    -----------------------------------------------------------------
      1. B(H   1,N   0)                  1.0224         0.413397   
      2. B(H   2,N   0)                  1.0209         0.415727   
      3. B(H   3,N   0)                  1.0214         0.414938   
      4. B(H   5,N   4)                  1.0186         0.419254   
      5. B(H   6,N   0)                  2.0044         0.011212   
      6. B(H   6,N   4)                  1.0329         0.397737   
      7. B(H   6,H   3)                  2.5656         0.010000   
      8. B(H   6,H   1)                  2.2885         0.010000   
      9. B(H   7,N   4)                  1.0187         0.419160   
     10. A(H   1,N   0,H   3)          105.0457         0.299051   
     11. A(H   3,N   0,H   6)          111.8092         0.181838   
     12. A(H   2,N   0,H   6)          132.7978         0.181878   
     13. A(H   1,N   0,H   2)          105.2253         0.299142   
     14. A(H   2,N   0,H   3)          105.3098         0.299319   
     15. A(H   1,N   0,H   6)           92.4378         0.181760   
     16. A(N   0,H   1,H   6)           61.0519         0.130789   
     17. A(N   0,H   3,H   6)           46.4981         0.122219   
     18. A(H   6,N   4,H   7)          104.0597         0.297701   
     19. A(H   5,N   4,H   7)          105.6492         0.300205   
     20. A(H   5,N   4,H   6)          104.1367         0.297712   
     21. A(H   3,H   6,N   4)          160.6358         0.121902   
     22. A(N   0,H   6,H   1)           26.5103         0.107470   
     23. A(N   0,H   6,H   3)           21.6927         0.103670   
     24. A(H   1,H   6,N   4)          153.5263         0.130426   
     25. A(H   1,H   6,H   3)           38.5101         0.095609   
     26. D(H   6,H   1,N   0,H   2)    135.7542         0.213634   
     27. D(H   6,H   1,N   0,H   3)   -113.3594         0.213634   
     28. D(H   6,H   3,N   0,H   1)     98.9171         0.215642   
     29. D(H   6,H   3,N   0,H   2)   -150.2571         0.215642   
     30. D(H   5,N   4,N   0,H   3)    -45.5509         0.010000   
     31. D(H   5,N   4,N   0,H   2)     93.8895         0.010000   
     32. D(H   7,N   4,N   0,H   2)    -16.2217         0.010000   
     33. D(H   5,N   4,N   0,H   1)   -152.9815         0.010000   
     34. D(H   7,N   4,N   0,H   1)     96.9074         0.010000   
     35. D(H   7,N   4,N   0,H   3)   -155.6620         0.010000   
     36. D(H   3,H   6,N   0,H   2)    139.2977         0.010000   
     37. D(H   3,H   6,N   0,H   1)   -107.2710         0.010000   
     38. D(H   1,H   6,N   0,H   3)    107.2710         0.010000   
     39. D(N   4,H   6,H   1,N   0)   -174.3756         0.010000   
     40. D(H   1,H   6,N   0,H   2)   -113.4313         0.010000   
     41. D(H   3,H   6,N   4,H   5)    -42.7872         0.211593   
     42. D(H   1,H   6,N   4,H   7)     91.9338         0.211593   
     43. D(H   1,H   6,N   4,H   5)   -157.5889         0.211593   
     44. D(H   1,H   6,H   3,N   0)    -43.1996         0.010000   
     45. D(N   4,H   6,H   3,N   0)    177.3353         0.010000   
     46. D(H   3,H   6,N   4,H   7)   -153.2645         0.211593   
     47. D(H   3,H   6,H   1,N   0)     34.5321         0.010000   
    -----------------------------------------------------------------

Number of atoms                         .... 8
Number of degrees of freedom            .... 47


         *************************************************************
         *                GEOMETRY OPTIMIZATION CYCLE   1            *
         *************************************************************
---------------------------------
CARTESIAN COORDINATES (ANGSTROEM)
---------------------------------
  N     -3.354995   -0.348029   -0.094160
  H     -3.194559   -0.449027    0.910538
  H     -2.586892   -0.851282   -0.540239
  H     -4.189714   -0.904349   -0.286619
  N     -3.962086    2.615914    0.166617
  H     -4.577576    2.825544   -0.617455
  H     -3.784264    1.601785    0.083632
  H     -3.067049    3.043831   -0.064602

----------------------------
CARTESIAN COORDINATES (A.U.)
----------------------------
  NO LB      ZA    FRAG     MASS         X           Y           Z
   0 N     7.0000    0    14.007   -6.340022   -0.657679   -0.177937
   1 H     1.0000    0     1.008   -6.036842   -0.848538    1.720667
   2 H     1.0000    0     1.008   -4.888517   -1.608690   -1.020904
   3 H     1.0000    0     1.008   -7.917412   -1.708972   -0.541631
   4 N     7.0000    0    14.007   -7.487257    4.943361    0.314860
   5 H     1.0000    0     1.008   -8.650365    5.339504   -1.166821
   6 H     1.0000    0     1.008   -7.151223    3.026935    0.158042
   7 H     1.0000    0     1.008   -5.795883    5.752007   -0.122080

--------------------------------
INTERNAL COORDINATES (ANGSTROEM)
--------------------------------
 N      0   0   0     0.000000000000     0.00000000     0.00000000
 H      1   0   0     1.022427688056     0.00000000     0.00000000
 H      1   2   0     1.020897778849   105.22526995     0.00000000
 H      1   2   3     1.021414811936   105.04568962   110.88640801
 N      1   2   3     3.036695940205    92.48743713   225.09814467
 H      5   1   2     1.018597849096   104.80736123   207.01853103
 H      5   1   2     1.032939883318     1.65538256   273.31582708
 H      5   1   2     1.018659126607   102.40763986    96.90738303

---------------------------
INTERNAL COORDINATES (A.U.)
---------------------------
 N      0   0   0     0.000000000000     0.00000000     0.00000000
 H      1   0   0     1.932108322165     0.00000000     0.00000000
 H      1   2   0     1.929217212753   105.22526995     0.00000000
 H      1   2   3     1.930194263689   105.04568962   110.88640801
 N      1   2   3     5.738523678978    92.48743713   225.09814467
 H      5   1   2     1.924870975394   104.80736123   207.01853103
 H      5   1   2     1.951973492277     1.65538256   273.31582708
 H      5   1   2     1.924986773106   102.40763986    96.90738303

---------------------
BASIS SET INFORMATION
---------------------
There are 2 groups of distinct atoms

 Group   1 Type N   : 10s4p1d contracted to 3s2p1d pattern {631/31/1}
 Group   2 Type H   : 4s1p contracted to 2s1p pattern {31/1}

Atom   0N    basis set group =>   1
Atom   1H    basis set group =>   2
Atom   2H    basis set group =>   2
Atom   3H    basis set group =>   2
Atom   4N    basis set group =>   1
Atom   5H    basis set group =>   2
Atom   6H    basis set group =>   2
Atom   7H    basis set group =>   2
------------------------------------------------------------------------------
                             ORCA STARTUP CALCULATIONS
------------------------------------------------------------------------------
------------------------------------------------------------------------------
                   ___                                                        
                  /   \      - P O W E R E D   B Y -                         
                 /     \                                                     
                 |  |  |   _    _      __       _____    __    __             
                 |  |  |  | |  | |    /  \     |  _  \  |  |  /  |          
                  \  \/   | |  | |   /    \    | | | |  |  | /  /          
                 / \  \   | |__| |  /  /\  \   | |_| |  |  |/  /          
                |  |  |   |  __  | /  /__\  \  |    /   |      \           
                |  |  |   | |  | | |   __   |  |    \   |  |\   \          
                \     /   | |  | | |  |  |  |  | |\  \  |  | \   \       
                 \___/    |_|  |_| |__|  |__|  |_| \__\ |__|  \__/        
                                                                              
                      - O R C A' S   B I G   F R I E N D -                    
                                      &                                       
                       - I N T E G R A L  F E E D E R -                       
                                                                              
 v1 FN, 2020, v2 2021, v3 2022-2024                                           
------------------------------------------------------------------------------


----------------------
SHARK INTEGRAL PACKAGE
----------------------

Number of atoms                             ...      8
Number of basis functions                   ...     58
Number of shells                            ...     30
Maximum angular momentum                    ...      2
Integral batch strategy                     ... SHARK/LIBINT Hybrid
RI-J (if used) integral strategy            ... SPLIT-RIJ (Revised 2003 algorithm where possible)
Printlevel                                  ...      1
Contraction scheme used                     ... SEGMENTED contraction
Prescreening option                         ... SCHWARTZ
   Thresh                                   ... 2.500e-11
   Tcut                                     ... 2.500e-12
   Tpresel                                  ... 2.500e-12 
Coulomb Range Separation                    ... NOT USED
Exchange Range Separation                   ... NOT USED
Multipole approximations                    ... NOT USED
Finite Nucleus Model                        ... NOT USED
CABS basis                                  ... NOT available
Auxiliary Coulomb fitting basis             ... NOT available
Auxiliary J/K fitting basis                 ... NOT available
Auxiliary Correlation fitting basis         ... NOT available
Auxiliary 'external' fitting basis          ... NOT available

Checking pre-screening integrals            ... done (  0.0 sec) Dimension = 30
   => SHARK Basis and OBASIS are compatible. Storing Pre-screening
Shell pair information
Shell pair cut-off parameter TPreSel        ...   2.5e-12
Total number of shell pairs                 ...       465
Shell pairs after pre-screening             ...       455
Total number of primitive shell pairs       ...      1890
Primitive shell pairs kept                  ...      1476
          la=0 lb=0:    168 shell pairs
          la=1 lb=0:    175 shell pairs
          la=1 lb=1:     53 shell pairs
          la=2 lb=0:     36 shell pairs
          la=2 lb=1:     20 shell pairs
          la=2 lb=2:      3 shell pairs

Checking whether 4 symmetric matrices of dimension 58 fit in memory
:Max Core in MB      =   4096.00
 MB in use           =      1.78
 MB left             =   4094.22
 MB needed           =      0.05
 Data fit in memory  = YES
Calculating Nuclear repulsion               ... done (  0.0 sec) ENN=     40.844099092616 Eh

Diagonalization of the overlap matrix:
Smallest eigenvalue                        ... 1.957e-02
Time for diagonalization                   ...    0.000 sec
Threshold for overlap eigenvalues          ... 1.000e-07
Number of eigenvalues below threshold      ... 0
Time for construction of square roots      ...    0.000 sec
Total time needed                          ...    0.000 sec

-------------------
DFT GRID GENERATION
-------------------

General Integration Accuracy     IntAcc      ... 4.388
Radial Grid Type                 RadialGrid  ... OptM3 with GC (2021)
Angular Grid (max. ang.)         AngularGrid ... 4 (Lebedev-302)
Angular grid pruning method      GridPruning ... 4 (adaptive)
Weight generation scheme         WeightScheme... mBecke (2022)
Basis function cutoff            BFCut       ... 1.0000e-11
Integration weight cutoff        WCut        ... 1.0000e-14
Partially contracted basis set               ... off
Rotationally invariant grid construction     ... off
Angular grids for H and He will be reduced by one unit

Total number of grid points                  ...    31871
Total number of batches                      ...      502
Average number of points per batch           ...       63
Average number of grid points per atom       ...     3984
Grids setup in   0.1 sec
Initializing property integral containers    ... done (  0.0 sec)

SHARK setup successfully completed in   0.1 seconds

Maximum memory used throughout the entire STARTUP-calculation: 11.5 MB
-------------------------------------------------------------------------------
                                 ORCA GUESS
                   Start orbitals & Density for SCF / CASSCF
-------------------------------------------------------------------------------

------------
SCF SETTINGS
------------
Hamiltonian:
 Ab initio Hamiltonian  Method          .... Hartree-Fock(GTOs)


General Settings:
 Integral files         IntName         .... dimer
 Hartree-Fock type      HFTyp           .... RHF
 Total Charge           Charge          ....    0
 Multiplicity           Mult            ....    1
 Number of Electrons    NEL             ....   20
 Basis Dimension        Dim             ....   58
 Nuclear Repulsion      ENuc            ....     40.8440990926 Eh

Convergence Acceleration:
 AO-DIIS                CNVDIIS         .... on
   Start iteration      DIISMaxIt       ....    12
   Startup error        DIISStart       ....  0.200000
   # of expansion vecs  DIISMaxEq       ....     5
   Bias factor          DIISBfac        ....   1.050
   Max. coefficient     DIISMaxC        ....  10.000
 MO-DIIS                CNVKDIIS        .... off
 Trust-Rad. Augm. Hess. CNVTRAH         .... auto
   Auto Start mean grad. ratio tolernc. ....  1.125000
   Auto Start start iteration           ....    50
   Auto Start num. interpolation iter.  ....    10
   Max. Number of Micro iterations      ....    24
   Max. Number of Macro iterations      .... Maxiter - #DIIS iter
   Number of Davidson start vectors     ....     2
   Converg. threshold    (grad. norm)   ....   1.000e-05
   Grad. Scal. Fac. for Micro threshold ....   0.100
   Minimum threshold for Micro iter.    ....   1.000e-02
   NR start threshold (gradient norm)   ....   1.000e-04
   Initial trust radius                 ....   0.400
   Minimum AH scaling param. (alpha)    ....   1.000
   Maximum AH scaling param. (alpha)    .... 1000.000
   Quad. conv. algorithm                .... NR
   White noise on init. David. guess    .... on
   Maximum white noise                  ....   0.010
   Pseudo random numbers                .... off
   Inactive MOs                         .... canonical
   Orbital update algorithm             .... Taylor
   Preconditioner                       .... Diag
   Full preconditioner red. dimension   ....   250
 SOSCF                 CNVSOSCF           .... on
   Start iteration     SOSCFMaxIt         ....   150
   Startup grad/error  SOSCFStart         ....  0.003300
   Hessian update      SOSCFHessUp        .... L-BFGS
   Autom. constraints  SOSCFAutoConstrain .... off
 Level Shifting         CNVShift        .... on
   Level shift para.    LevelShift      ....    0.2500
   Turn off err/grad.   ShiftErr        ....    0.0010
 Zerner damping         CNVZerner       .... off
 Static damping         CNVDamp         .... on
   Fraction old density DampFac         ....    0.7000
   Max. Damping (<1)    DampMax         ....    0.9800
   Min. Damping (>=0)   DampMin         ....    0.0000
   Turn off err/grad.   DampErr         ....    0.1000

SCF Procedure:
 Maximum # iterations   MaxIter         ....   125
 SCF integral mode      SCFMode         .... Direct
   Integral package                     .... SHARK and LIBINT hybrid scheme
 Reset frequency        DirectResetFreq ....    20
 Integral Threshold     Thresh          ....  2.500e-11 Eh
 Primitive CutOff       TCut            ....  2.500e-12 Eh

Convergence Tolerance:
 Convergence Check Mode ConvCheckMode   .... Total+1el-Energy
 Convergence forced     ConvForced      .... 1
 Energy Change          TolE            ....  1.000e-08 Eh
 1-El. energy change                    ....  1.000e-05 Eh
 Orbital Gradient       TolG            ....  1.000e-05
 Orbital Rotation angle TolX            ....  1.000e-05
 DIIS Error             TolErr          ....  5.000e-07

------------------------------
INITIAL GUESS: MODEL POTENTIAL
------------------------------
Loading Hartree-Fock densities                     ... done
Calculating cut-offs                               ... done
Initializing the effective Hamiltonian             ... done
Setting up the integral package (SHARK)            ... done
Starting the Coulomb interaction                   ... done (   0.0 sec)
Making the grid                                    ... done (   0.0 sec)
Mapping shells                                     ... done
Starting the XC term evaluation                    ... done (   0.0 sec)
Transforming the Hamiltonian                       ... done (   0.0 sec)
Diagonalizing the Hamiltonian                      ... done (   0.0 sec)
Back transforming the eigenvectors                 ... done (   0.0 sec)
Now organizing SCF variables                       ... done
                      ------------------
                      INITIAL GUESS DONE (   0.0 sec)
                      ------------------
             **** ENERGY FILE WAS UPDATED (dimer.en.tmp) ****
Finished Guess after   0.0 sec
Maximum memory used throughout the entire GUESS-calculation: 4.2 MB

-------------------------------------------------------------------------------------------
                                      ORCA LEAN-SCF
                              memory conserving SCF solver
-------------------------------------------------------------------------------------------

----------------------------------------D-I-I-S--------------------------------------------
Iteration    Energy (Eh)           Delta-E    RMSDP     MaxDP     DIISErr   Damp  Time(sec)
-------------------------------------------------------------------------------------------
               ***  Starting incremental Fock matrix formation  ***
    1    -112.1477268590881948     0.00e+00  5.66e-03  8.04e-02  3.23e-01  0.700   0.0
    2    -112.2409430973443847    -9.32e-02  4.10e-03  5.78e-02  1.99e-01  0.700   0.0
                               ***Turning on AO-DIIS***
    3    -112.2926057514303437    -5.17e-02  1.87e-03  2.56e-02  1.12e-01  0.700   0.0
    4    -112.3238426144563533    -3.12e-02  1.17e-03  1.56e-02  7.40e-02  0.700   0.0
    5    -112.3443983166626623    -2.06e-02  2.73e-03  3.59e-02  5.16e-02  0.000   0.0
                              *** Initializing SOSCF ***
---------------------------------------S-O-S-C-F--------------------------------------
Iteration    Energy (Eh)           Delta-E    RMSDP     MaxDP     MaxGrad    Time(sec)
--------------------------------------------------------------------------------------
    6    -112.3901692433916679    -4.58e-02  2.93e-04  3.10e-03  2.51e-03     0.0
               *** Restarting incremental Fock matrix formation ***
    7    -112.3902311882850569    -6.19e-05  2.09e-04  2.44e-03  8.83e-04     0.0
    8    -112.3902464898982458    -1.53e-05  1.52e-04  1.80e-03  3.58e-04     0.0
    9    -112.3902494319415979    -2.94e-06  1.57e-05  2.10e-04  1.58e-04     0.0
   10    -112.3902495830555921    -1.51e-07  3.31e-06  3.36e-05  2.95e-05     0.0
   11    -112.3902495913760760    -8.32e-09  2.25e-06  2.23e-05  7.13e-06     0.0
                 **** Energy Check signals convergence ****

               *****************************************************
               *                     SUCCESS                       *
               *           SCF CONVERGED AFTER  11 CYCLES          *
               *****************************************************

             **** ENERGY FILE WAS UPDATED (dimer.en.tmp) ****

----------------
TOTAL SCF ENERGY
----------------

Total Energy       :       -112.39024959257064 Eh           -3058.29417 eV

Components:
Nuclear Repulsion  :         40.84409909261639 Eh            1111.42444 eV
Electronic Energy  :       -153.23434868518703 Eh           -4169.71861 eV
One Electron Energy:       -233.30273957973591 Eh           -6348.49029 eV
Two Electron Energy:         80.06839089454888 Eh            2178.77168 eV

Virial components:
Potential Energy   :       -224.54474282161686 Eh           -6110.17309 eV
Kinetic Energy     :        112.15449322904622 Eh            3051.87892 eV
Virial Ratio       :          2.00210206793091

---------------
SCF CONVERGENCE
---------------

  Last Energy change         ...    8.3205e-09  Tolerance :   1.0000e-08
  Last MAX-Density change    ...    2.2251e-05  Tolerance :   1.0000e-07
  Last RMS-Density change    ...    2.2527e-06  Tolerance :   5.0000e-09
  Last DIIS Error            ...    2.5068e-03  Tolerance :   5.0000e-07
  Last Orbital Gradient      ...    7.1287e-06  Tolerance :   1.0000e-05
  Last Orbital Rotation      ...    1.5180e-05  Tolerance :   1.0000e-05


----------------
ORBITAL ENERGIES
----------------

  NO   OCC          E(Eh)            E(eV) 
   0   2.0000     -15.562800      -423.4853 
   1   2.0000     -15.501875      -421.8275 
   2   2.0000      -1.155719       -31.4487 
   3   2.0000      -1.096532       -29.8382 
   4   2.0000      -0.637396       -17.3444 
   5   2.0000      -0.634707       -17.2713 
   6   2.0000      -0.582031       -15.8379 
   7   2.0000      -0.579059       -15.7570 
   8   2.0000      -0.445105       -12.1119 
   9   2.0000      -0.387755       -10.5514 
  10   0.0000       0.203945         5.5496 
  11   0.0000       0.269091         7.3223 
  12   0.0000       0.303848         8.2681 
  13   0.0000       0.306352         8.3363 
  14   0.0000       0.346407         9.4262 
  15   0.0000       0.461569        12.5599 
  16   0.0000       0.844303        22.9747 
  17   0.0000       0.869717        23.6662 
  18   0.0000       0.931406        25.3448 
  19   0.0000       0.950225        25.8569 
  20   0.0000       1.004151        27.3243 
*Only the first 10 virtual orbitals were printed.

                    ********************************
                    * MULLIKEN POPULATION ANALYSIS *
                    ********************************

-----------------------
MULLIKEN ATOMIC CHARGES
-----------------------
   0 N :   -0.804531
   1 H :    0.278080
   2 H :    0.274403
   3 H :    0.273403
   4 N :   -0.827991
   5 H :    0.240182
   6 H :    0.326469
   7 H :    0.239986
Sum of atomic charges:   -0.0000000

--------------------------------
MULLIKEN REDUCED ORBITAL CHARGES
--------------------------------
  0 N s       :     3.639231  s :     3.639231
      pz      :     1.246189  p :     4.134934
      px      :     1.198804
      py      :     1.689942
      dz2     :     0.010999  d :     0.030366
      dxz     :     0.002464
      dyz     :     0.003458
      dx2y2   :     0.000349
      dxy     :     0.013097

  1 H s       :     0.696484  s :     0.696484
      pz      :     0.015030  p :     0.025436
      px      :     0.004129
      py      :     0.006277

  2 H s       :     0.699908  s :     0.699908
      pz      :     0.006847  p :     0.025689
      px      :     0.010542
      py      :     0.008300

  3 H s       :     0.700993  s :     0.700993
      pz      :     0.004739  p :     0.025605
      px      :     0.012118
      py      :     0.008748

  4 N s       :     3.642209  s :     3.642209
      pz      :     1.624151  p :     4.155337
      px      :     1.240054
      py      :     1.291132
      dz2     :     0.006847  d :     0.030445
      dxz     :     0.008843
      dyz     :     0.002466
      dx2y2   :     0.008364
      dxy     :     0.003925

  5 H s       :     0.734080  s :     0.734080
      pz      :     0.011419  p :     0.025737
      px      :     0.009141
      py      :     0.005177

  6 H s       :     0.646246  s :     0.646246
      pz      :     0.005759  p :     0.027285
      px      :     0.004374
      py      :     0.017153

  7 H s       :     0.734284  s :     0.734284
      pz      :     0.006441  p :     0.025730
      px      :     0.012471
      py      :     0.006818



                     *******************************
                     * LOEWDIN POPULATION ANALYSIS *
                     *******************************

----------------------
LOEWDIN ATOMIC CHARGES
----------------------
   0 N :   -0.359796
   1 H :    0.137664
   2 H :    0.133979
   3 H :    0.134950
   4 N :   -0.415334
   5 H :    0.118120
   6 H :    0.132281
   7 H :    0.118136

-------------------------------
LOEWDIN REDUCED ORBITAL CHARGES
-------------------------------
  0 N s       :     3.243163  s :     3.243163
      pz      :     1.237970  p :     4.074229
      px      :     1.192947
      py      :     1.643311
      dz2     :     0.016245  d :     0.042405
      dxz     :     0.005286
      dyz     :     0.003421
      dx2y2   :     0.000772
      dxy     :     0.016682

  1 H s       :     0.783088  s :     0.783088
      pz      :     0.045427  p :     0.079248
      px      :     0.012057
      py      :     0.021764

  2 H s       :     0.786752  s :     0.786752
      pz      :     0.019721  p :     0.079269
      px      :     0.031319
      py      :     0.028229

  3 H s       :     0.785672  s :     0.785672
      pz      :     0.013777  p :     0.079378
      px      :     0.035500
      py      :     0.030102

  4 N s       :     3.246518  s :     3.246518
      pz      :     1.607978  p :     4.126603
      px      :     1.246742
      py      :     1.271883
      dz2     :     0.008229  d :     0.042213
      dxz     :     0.011899
      dyz     :     0.002260
      dx2y2   :     0.012876
      dxy     :     0.006949

  5 H s       :     0.802829  s :     0.802829
      pz      :     0.037371  p :     0.079050
      px      :     0.026298
      py      :     0.015381

  6 H s       :     0.778123  s :     0.778123
      pz      :     0.019210  p :     0.089596
      px      :     0.013079
      py      :     0.057308

  7 H s       :     0.802834  s :     0.802834
      pz      :     0.021473  p :     0.079030
      px      :     0.037374
      py      :     0.020184



                      *****************************
                      * MAYER POPULATION ANALYSIS *
                      *****************************

  NA   - Mulliken gross atomic population
  ZA   - Total nuclear charge
  QA   - Mulliken gross atomic charge
  VA   - Mayer's total valence
  BVA  - Mayer's bonded valence
  FA   - Mayer's free valence

  ATOM       NA         ZA         QA         VA         BVA        FA
  0 N      7.8045     7.0000    -0.8045     2.7707     2.7707    -0.0000
  1 H      0.7219     1.0000     0.2781     0.8993     0.8993    -0.0000
  2 H      0.7256     1.0000     0.2744     0.9042     0.9042    -0.0000
  3 H      0.7266     1.0000     0.2734     0.9032     0.9032    -0.0000
  4 N      7.8280     7.0000    -0.8280     2.7202     2.7202    -0.0000
  5 H      0.7598     1.0000     0.2402     0.9194     0.9194     0.0000
  6 H      0.6735     1.0000     0.3265     0.8805     0.8805    -0.0000
  7 H      0.7600     1.0000     0.2400     0.9195     0.9195    -0.0000

  Mayer bond orders larger than 0.100000
B(  0-N ,  1-H ) :   0.9093 B(  0-N ,  2-H ) :   0.9128 B(  0-N ,  3-H ) :   0.9116 
B(  4-N ,  5-H ) :   0.9295 B(  4-N ,  6-H ) :   0.8599 B(  4-N ,  7-H ) :   0.9295 


-------
TIMINGS
-------

Total SCF time: 0 days 0 hours 0 min 0 sec 

Total time                  ....       0.325 sec
Sum of individual times     ....       0.298 sec  ( 91.9%)

SCF preparation             ....       0.012 sec  (  3.6%)
Fock matrix formation       ....       0.281 sec  ( 86.4%)
  Startup                   ....       0.000 sec  (  0.1% of F)
  Coulomb+Exchange Fock     ....       0.301 sec  (107.3% of F)
Diagonalization             ....       0.000 sec  (  0.0%)
Density matrix formation    ....       0.001 sec  (  0.2%)
Total Energy calculation    ....       0.000 sec  (  0.1%)
Population analysis         ....       0.001 sec  (  0.2%)
Orbital Transformation      ....       0.001 sec  (  0.2%)
Orbital Orthonormalization  ....       0.000 sec  (  0.0%)
DIIS solution               ....       0.003 sec  (  0.8%)
SOSCF solution              ....       0.001 sec  (  0.4%)
Finished LeanSCF after   0.3 sec

Maximum memory used throughout the entire LEANSCF-calculation: 7.8 MB

------------------------------------------------------------------------------
                                ORCA  MP2 
------------------------------------------------------------------------------

Freezing NCore=4 chemical core electrons
MP2 will be done in the AO integral direct mode
The Q1-step will be done using symmetric double matrices
Dimension of the basis                    ...   58
Memory devoted for MP2                    ... 4096 MB   
Memory needed for all in one shot         ...    7 MB
Number of MOs that can be treated together... 5408      
MP2 density construction                  ... relaxed
The MP2 gradient is requested => amplitudes will be stored on disk
Total number of MOs              ...    8
Number of MOs treated per batch  ...    8 
Number of batches necessary      ...    1 
OPERATORS   0/  0 PASS   0
-----------------------------------------------
 MP2 CORRELATION ENERGY   :     -0.376306866 Eh
-----------------------------------------------


---------------------
MP2 DENSITY FORMATION
---------------------

Completing the external part of the density      ... done
Storing the unrelaxed density                    ... done

Calculating G(D)                                 ... done
Completing the Lagrangian                        ... done
Solving the Z-vector equations                   ... 
-------------------
SHARK CP-SCF DRIVER
-------------------

Dimension of the orbital basis          ...     58
Dimension of the CPSCF-problem          ...    480
Number of operators                     ...      1
Max. number of iterations               ...    128
Convergence Tolerance                   ... 1.0e-04
Number of perturbations                 ...      1
Perturbation type                       ... REAL

----------------------------
POPLE LINEAR EQUATION SOLVER
----------------------------

  ITERATION   0:   ||err||_max =   3.0043e-02 (   0.0 sec)
  ITERATION   1:   ||err||_max =   6.5641e-03 (   0.0 sec)
  ITERATION   2:   ||err||_max =   1.1430e-03 (   0.0 sec)
  ITERATION   3:   ||err||_max =   2.3290e-04 (   0.0 sec)
  ITERATION   4:   ||err||_max =   6.3318e-05 (   0.0 sec)
                                                 ... done
Finalizing the relaxed density                   ... done
Transforming P to the AO basis                   ... done
Storing the relaxed density                      ... done

------------------------------------
ENERGY WEIGHTED DENSITY FINALIZATION
------------------------------------

Gathering the parts of the W-matrix              ...                                                      done
Forming the Z-density                            ... done
Transforming Z to the AO basis                   ... done
Calculating G(Z)                                 ... done
Finalizing the W-matrix                          ...                                                      done
Transforming W to the AO basis and storing       ... done

                *********************************************
                * UNRELAXED MP2 DENSITY POPULATION ANALYSIS *
                *********************************************

------------------------------------------------------------------------------
                           ORCA POPULATION ANALYSIS
------------------------------------------------------------------------------
Input electron density              ... dimer.pmp2ur
BaseName (.gbw .S,...)              ... dimer

                    ********************************
                    * MULLIKEN POPULATION ANALYSIS *
                    ********************************

-----------------------
MULLIKEN ATOMIC CHARGES
-----------------------
   0 N :   -0.800228
   1 H :    0.276902
   2 H :    0.273261
   3 H :    0.272281
   4 N :   -0.824326
   5 H :    0.239125
   6 H :    0.324054
   7 H :    0.238931
Sum of atomic charges:   -0.0000000

--------------------------------
MULLIKEN REDUCED ORBITAL CHARGES
--------------------------------
  0 N s       :     3.634564  s :     3.634564
      pz      :     1.241062  p :     4.114806
      px      :     1.194181
      py      :     1.679563
      dz2     :     0.014844  d :     0.050859
      dxz     :     0.006420
      dyz     :     0.007773
      dx2y2   :     0.004671
      dxy     :     0.017150
  1 H s       :     0.695679  s :     0.695679
      pz      :     0.015324  p :     0.027420
      px      :     0.004944
      py      :     0.007152
  2 H s       :     0.699083  s :     0.699083
      pz      :     0.007536  p :     0.027656
      px      :     0.011030
      py      :     0.009089
  3 H s       :     0.700151  s :     0.700151
      pz      :     0.005537  p :     0.027568
      px      :     0.012525
      py      :     0.009507
  4 N s       :     3.637596  s :     3.637596
      pz      :     1.615247  p :     4.135895
      px      :     1.235200
      py      :     1.285448
      dz2     :     0.011025  d :     0.050835
      dxz     :     0.012893
      dyz     :     0.006764
      dx2y2   :     0.012220
      dxy     :     0.007933
  5 H s       :     0.733042  s :     0.733042
      pz      :     0.012077  p :     0.027833
      px      :     0.009752
      py      :     0.006004
  6 H s       :     0.646815  s :     0.646815
      pz      :     0.006606  p :     0.029131
      px      :     0.005180
      py      :     0.017344
  7 H s       :     0.733243  s :     0.733243
      pz      :     0.007329  p :     0.027826
      px      :     0.012934
      py      :     0.007563


                     *******************************
                     * LOEWDIN POPULATION ANALYSIS *
                     *******************************

----------------------
LOEWDIN ATOMIC CHARGES
----------------------
   0 N :   -0.356749
   1 H :    0.136927
   2 H :    0.133301
   3 H :    0.134254
   4 N :   -0.413313
   5 H :    0.117367
   6 H :    0.130833
   7 H :    0.117382

-------------------------------
LOEWDIN REDUCED ORBITAL CHARGES
-------------------------------
  0 N s       :     3.240216  s :     3.240216
      pz      :     1.232118  p :     4.052436
      px      :     1.187477
      py      :     1.632841
      dz2     :     0.020665  d :     0.064097
      dxz     :     0.009303
      dyz     :     0.007734
      dx2y2   :     0.005097
      dxy     :     0.021297
  1 H s       :     0.780343  s :     0.780343
      pz      :     0.047103  p :     0.082730
      px      :     0.012994
      py      :     0.022632
  2 H s       :     0.783934  s :     0.783934
      pz      :     0.020718  p :     0.082765
      px      :     0.032649
      py      :     0.029398
  3 H s       :     0.782871  s :     0.782871
      pz      :     0.014688  p :     0.082875
      px      :     0.036870
      py      :     0.031318
  4 N s       :     3.243777  s :     3.243777
      pz      :     1.598970  p :     4.105710
      px      :     1.240973
      py      :     1.265767
      dz2     :     0.012693  d :     0.063826
      dxz     :     0.016330
      dyz     :     0.006491
      dx2y2   :     0.017217
      dxy     :     0.011095
  5 H s       :     0.799890  s :     0.799890
      pz      :     0.038951  p :     0.082743
      px      :     0.027458
      py      :     0.016334
  6 H s       :     0.776400  s :     0.776400
      pz      :     0.020067  p :     0.092767
      px      :     0.014006
      py      :     0.058695
  7 H s       :     0.799895  s :     0.799895
      pz      :     0.022445  p :     0.082723
      px      :     0.039043
      py      :     0.021236


                      *****************************
                      * MAYER POPULATION ANALYSIS *
                      *****************************

  NA   - Mulliken gross atomic population
  ZA   - Total nuclear charge
  QA   - Mulliken gross atomic charge
  VA   - Mayer's total valence
  BVA  - Mayer's bonded valence
  FA   - Mayer's free valence

  ATOM       NA         ZA         QA         VA         BVA        FA
  0 N      7.8002     7.0000    -0.8002     2.9644     2.6608     0.3036
  1 H      0.7231     1.0000     0.2769     0.9062     0.8627     0.0434
  2 H      0.7267     1.0000     0.2733     0.9109     0.8675     0.0435
  3 H      0.7277     1.0000     0.2723     0.9100     0.8665     0.0435
  4 N      7.8243     7.0000    -0.8243     2.9132     2.6111     0.3021
  5 H      0.7609     1.0000     0.2391     0.9269     0.8818     0.0451
  6 H      0.6759     1.0000     0.3241     0.8871     0.8457     0.0413
  7 H      0.7611     1.0000     0.2389     0.9270     0.8819     0.0451

  Mayer bond orders larger than 0.100000
B(  0-N ,  1-H ) :   0.8731 B(  0-N ,  2-H ) :   0.8767 B(  0-N ,  3-H ) :   0.8753 
B(  4-N ,  5-H ) :   0.8924 B(  4-N ,  6-H ) :   0.8260 B(  4-N ,  7-H ) :   0.8924 



                *******************************************
                * RELAXED MP2 DENSITY POPULATION ANALYSIS *
                *******************************************

------------------------------------------------------------------------------
                           ORCA POPULATION ANALYSIS
------------------------------------------------------------------------------
Input electron density              ... dimer.pmp2re
BaseName (.gbw .S,...)              ... dimer

                    ********************************
                    * MULLIKEN POPULATION ANALYSIS *
                    ********************************

-----------------------
MULLIKEN ATOMIC CHARGES
-----------------------
   0 N :   -0.753765
   1 H :    0.265234
   2 H :    0.261128
   3 H :    0.260553
   4 N :   -0.783357
   5 H :    0.226860
   6 H :    0.296681
   7 H :    0.226667
Sum of atomic charges:   -0.0000000

--------------------------------
MULLIKEN REDUCED ORBITAL CHARGES
--------------------------------
  0 N s       :     3.624586  s :     3.624586
      pz      :     1.233069  p :     4.080571
      px      :     1.185735
      py      :     1.661768
      dz2     :     0.013829  d :     0.048608
      dxz     :     0.005965
      dyz     :     0.007759
      dx2y2   :     0.004739
      dxy     :     0.016316
  1 H s       :     0.708474  s :     0.708474
      pz      :     0.013652  p :     0.026292
      px      :     0.005136
      py      :     0.007503
  2 H s       :     0.712363  s :     0.712363
      pz      :     0.007392  p :     0.026510
      px      :     0.010134
      py      :     0.008983
  3 H s       :     0.713005  s :     0.713005
      pz      :     0.005709  p :     0.026441
      px      :     0.011412
      py      :     0.009321
  4 N s       :     3.623844  s :     3.623844
      pz      :     1.606652  p :     4.110901
      px      :     1.227425
      py      :     1.276824
      dz2     :     0.010730  d :     0.048611
      dxz     :     0.012337
      dyz     :     0.006784
      dx2y2   :     0.011323
      dxy     :     0.007437
  5 H s       :     0.746394  s :     0.746394
      pz      :     0.011297  p :     0.026746
      px      :     0.009269
      py      :     0.006181
  6 H s       :     0.675494  s :     0.675494
      pz      :     0.006910  p :     0.027826
      px      :     0.005364
      py      :     0.015551
  7 H s       :     0.746595  s :     0.746595
      pz      :     0.007587  p :     0.026739
      px      :     0.011671
      py      :     0.007480


                     *******************************
                     * LOEWDIN POPULATION ANALYSIS *
                     *******************************

----------------------
LOEWDIN ATOMIC CHARGES
----------------------
   0 N :   -0.348765
   1 H :    0.135973
   2 H :    0.132392
   3 H :    0.133338
   4 N :   -0.409753
   5 H :    0.116054
   6 H :    0.124692
   7 H :    0.116069

-------------------------------
LOEWDIN REDUCED ORBITAL CHARGES
-------------------------------
  0 N s       :     3.239799  s :     3.239799
      pz      :     1.232559  p :     4.046812
      px      :     1.188294
      py      :     1.625959
      dz2     :     0.019799  d :     0.062154
      dxz     :     0.008889
      dyz     :     0.007718
      dx2y2   :     0.005095
      dxy     :     0.020654
  1 H s       :     0.782609  s :     0.782609
      pz      :     0.045629  p :     0.081417
      px      :     0.013007
      py      :     0.022781
  2 H s       :     0.786169  s :     0.786169
      pz      :     0.020357  p :     0.081439
      px      :     0.031700
      py      :     0.029382
  3 H s       :     0.785138  s :     0.785138
      pz      :     0.014670  p :     0.081524
      px      :     0.035670
      py      :     0.031184
  4 N s       :     3.243785  s :     3.243785
      pz      :     1.596490  p :     4.104005
      px      :     1.241505
      py      :     1.266010
      dz2     :     0.012450  d :     0.061962
      dxz     :     0.015834
      dyz     :     0.006503
      dx2y2   :     0.016527
      dxy     :     0.010649
  5 H s       :     0.802216  s :     0.802216
      pz      :     0.038539  p :     0.081730
      px      :     0.026811
      py      :     0.016380
  6 H s       :     0.783498  s :     0.783498
      pz      :     0.020307  p :     0.091811
      px      :     0.014069
      py      :     0.057434
  7 H s       :     0.802219  s :     0.802219
      pz      :     0.022720  p :     0.081712
      px      :     0.037949
      py      :     0.021044


                      *****************************
                      * MAYER POPULATION ANALYSIS *
                      *****************************

  NA   - Mulliken gross atomic population
  ZA   - Total nuclear charge
  QA   - Mulliken gross atomic charge
  VA   - Mayer's total valence
  BVA  - Mayer's bonded valence
  FA   - Mayer's free valence

  ATOM       NA         ZA         QA         VA         BVA        FA
  0 N      7.7538     7.0000    -0.7538     3.0035     2.7028     0.3008
  1 H      0.7348     1.0000     0.2652     0.9127     0.8690     0.0436
  2 H      0.7389     1.0000     0.2611     0.9172     0.8736     0.0437
  3 H      0.7394     1.0000     0.2606     0.9165     0.8728     0.0437
  4 N      7.7834     7.0000    -0.7834     2.9325     2.6324     0.3001
  5 H      0.7731     1.0000     0.2269     0.9328     0.8875     0.0453
  6 H      0.7033     1.0000     0.2967     0.9148     0.8737     0.0411
  7 H      0.7733     1.0000     0.2267     0.9330     0.8876     0.0453

  Mayer bond orders larger than 0.100000
B(  0-N ,  1-H ) :   0.8792 B(  0-N ,  2-H ) :   0.8823 B(  0-N ,  3-H ) :   0.8815 
B(  4-N ,  5-H ) :   0.8981 B(  4-N ,  6-H ) :   0.8331 B(  4-N ,  7-H ) :   0.8982 



----------------------------------
MP2 DERIVATIVE INTEGRAL GENERATION
----------------------------------

Input SCF Electron Density              ... dimer.scfp
Input Correlated Electron Density       ... dimer.pmp2re
Input Energy Weighted Density           ... dimer.wmp2.tmp
Input Wavefunction Amplitudes           ... dimer.mp2tsaa.tmp

Nuclear repulsion gradient              ... done (  0.0 sec)
HCore & Overlap gradient  (SHARK)       ... done (  0.0 sec)
Analytic two-electron gradient terms    ... 
  Batch handling in the gradient evaluation:
  General contraction                   ... not used
  Memory available                      ... 4093.5 MB
  Memory per occupied orbital in Q2     ...    0.2 MB
  Memory per occupied orbital in Q3     ...    0.0 MB
  Total memory requirement per |i>      ...    0.2 MB
  Number of orbitals treated per batch  ...      8
  Number of batches to be done          ...      1
done (  0.2 sec)

---------------------------------------
MP2 TOTAL ENERGY:     -112.766556459 Eh
---------------------------------------

The final MP2 gradient
  0:  -0.00116875   0.01500482  -0.00478346
  1:   0.00104045  -0.00096972   0.00608999
  2:   0.00358675  -0.00400837  -0.00143494
  3:  -0.00417457  -0.00391447  -0.00070063
  4:  -0.00251043   0.00973476   0.00391417
  5:  -0.00298482  -0.00187394  -0.00277136
  6:   0.00181262  -0.01333212  -0.00031687
  7:   0.00439876  -0.00064097   0.00000310

-----------------------------------
NORM OF THE MP2 GRADIENT:  0.026270
-----------------------------------

Maximum memory used throughout the entire MP2-calculation: 15.6 MB

-------------------------   --------------------
FINAL SINGLE POINT ENERGY      -112.766556458602
-------------------------   --------------------

------------------------------------------------------------------------------
                         ORCA GEOMETRY RELAXATION STEP
------------------------------------------------------------------------------

Reading the OPT-File                    .... done
Getting information on internals        .... done
Copying old internal coords+grads       .... done
Making the new internal coordinates     .... (2022 redundants) done
Validating the new internal coordinates .... (2022 redundants) done
Calculating the B-matrix                .... done
Calculating the G,G- and P matrices     .... done
Transforming gradient to internals      .... done
Projecting the internal gradient        .... done
Number of atoms                         ....   8
Number of internal coordinates          ....  47
Current Energy                          ....  -112.766556459 Eh
Current gradient norm                   ....     0.026270058 Eh/bohr
Maximum allowed component of the step   ....  0.300
Current trust radius                    ....  0.300
Evaluating the initial hessian          ....  (Almloef) done
Projecting the Hessian                  .... done
Forming the augmented Hessian           .... done
Diagonalizing the augmented Hessian     .... done
Last element of RFO vector              ....  0.970348206
Lowest eigenvalues of augmented Hessian:
 -0.001522823  0.013629183  0.020351006  0.058485618  0.068720499
Length of the computed step             ....  0.249097502
The final length of the internal step   ....  0.249097502
Converting the step to Cartesian space:
 Initial RMS(Int)=    0.0363346051
Transforming coordinates:
 Iter   0:  RMS(Cart)=    0.0423939743 RMS(Int)=    0.0363597489
done
Storing new coordinates                 .... done

                                .--------------------.
          ----------------------|Geometry convergence|-------------------------
          Item                value                   Tolerance       Converged
          ---------------------------------------------------------------------
          RMS gradient        0.0022442772            0.0001000000      NO
          MAX gradient        0.0073697167            0.0003000000      NO
          RMS step            0.0363346051            0.0020000000      NO
          MAX step            0.1560270493            0.0040000000      NO
          -------------------------------------------------------------------------
          ........................................................
          Max(Bonds)      0.0826      Max(Angles)    1.29
          Max(Dihed)        0.80      Max(Improp)    0.00
          ---------------------------------------------------------------------

The optimization has not yet converged - more geometry cycles are needed


    ---------------------------------------------------------------------------
                         Redundant Internal Coordinates
                            (Angstroem and degrees)

        Definition                    Value    dE/dq     Step     New-Value
    ----------------------------------------------------------------------------
     1. B(H   1,N   0)                1.0224  0.005321 -0.0068    1.0156   
     2. B(H   2,N   0)                1.0209  0.005302 -0.0067    1.0142   
     3. B(H   3,N   0)                1.0214  0.005114 -0.0073    1.0141   
     4. B(H   5,N   4)                1.0186  0.003551 -0.0045    1.0141   
     5. B(H   6,N   0)                2.0044 -0.004351  0.0826    2.0870   
     6. B(H   6,N   4)                1.0329  0.007370 -0.0098    1.0232   
     7. B(H   6,H   3)                2.5656 -0.000069  0.0679    2.6335   
     8. B(H   6,H   1)                2.2885 -0.000726  0.0688    2.3573   
     9. B(H   7,N   4)                1.0187  0.003595 -0.0045    1.0141   
    10. A(H   1,N   0,H   3)          105.05 -0.000432    0.43    105.48   
    11. A(H   3,N   0,H   6)          111.81  0.000324   -0.29    111.52   
    12. A(H   2,N   0,H   6)          132.80  0.000884   -0.16    132.64   
    13. A(H   1,N   0,H   2)          105.23 -0.000559    0.14    105.37   
    14. A(H   2,N   0,H   3)          105.31 -0.000826    0.20    105.51   
    15. A(H   1,N   0,H   6)           92.44  0.000350   -0.11     92.32   
    16. A(N   0,H   1,H   6)           61.05 -0.001800    1.16     62.21   
    17. A(N   0,H   3,H   6)           46.50 -0.001332    1.01     47.51   
    18. A(H   6,N   4,H   7)          104.06 -0.003663    0.70    104.76   
    19. A(H   5,N   4,H   7)          105.65  0.002476   -0.47    105.18   
    20. A(H   5,N   4,H   6)          104.14 -0.003983    0.76    104.90   
    21. A(H   3,H   6,N   4)          160.64 -0.000880    0.77    161.40   
    22. A(N   0,H   6,H   1)           26.51  0.001450   -1.05     25.46   
    23. A(N   0,H   6,H   3)           21.69  0.001008   -0.72     20.97   
    24. A(H   1,H   6,N   4)          153.53 -0.001232    0.74    154.26   
    25. A(H   1,H   6,H   3)           38.51  0.001862   -1.29     37.22   
    26. D(H   6,H   1,N   0,H   2)    135.75  0.000925   -0.18    135.58   
    27. D(H   6,H   1,N   0,H   3)   -113.36 -0.000379    0.27   -113.09   
    28. D(H   6,H   3,N   0,H   1)     98.92  0.000310   -0.03     98.88   
    29. D(H   6,H   3,N   0,H   2)   -150.26 -0.000804    0.37   -149.88   
    30. D(H   5,N   4,N   0,H   3)    -45.55 -0.000224    0.53    -45.02   
    31. D(H   5,N   4,N   0,H   2)     93.89  0.000023    0.26     94.15   
    32. D(H   7,N   4,N   0,H   2)    -16.22  0.000049    0.19    -16.03   
    33. D(H   5,N   4,N   0,H   1)   -152.98 -0.000017    0.21   -152.77   
    34. D(H   7,N   4,N   0,H   1)     96.91  0.000008    0.14     97.05   
    35. D(H   7,N   4,N   0,H   3)   -155.66 -0.000199    0.46   -155.20   
    36. D(H   3,H   6,N   0,H   2)    139.30  0.000312   -0.39    138.91   
    37. D(H   3,H   6,N   0,H   1)   -107.27  0.000265   -0.37   -107.64   
    38. D(H   1,H   6,N   0,H   3)    107.27 -0.000265    0.37    107.64   
    39. D(N   4,H   6,H   1,N   0)   -174.38  0.000236    0.02   -174.35   
    40. D(H   1,H   6,N   0,H   2)   -113.43  0.000047   -0.01   -113.45   
    41. D(H   3,H   6,N   4,H   5)    -42.79  0.000301   -0.16    -42.95   
    42. D(H   1,H   6,N   4,H   7)     91.93 -0.000173    0.13     92.06   
    43. D(H   1,H   6,N   4,H   5)   -157.59 -0.000234    0.15   -157.44   
    44. D(H   1,H   6,H   3,N   0)    -43.20 -0.000610    0.55    -42.65   
    45. D(N   4,H   6,H   3,N   0)    177.34 -0.000708    0.80    178.13   
    46. D(H   3,H   6,N   4,H   7)   -153.26  0.000362   -0.18   -153.44   
    47. D(H   3,H   6,H   1,N   0)     34.53  0.000190   -0.20     34.33   
    ----------------------------------------------------------------------------

Geometry step timings:
Preparation and reading OPT file:      0.000 s ( 2.158 %)
Internal coordinates            :      0.000 s ( 2.518 %)
B/P matrices and projection     :      0.000 s (24.640 %)
Hessian update/contruction      :      0.000 s (11.691 %)
Making the step                 :      0.000 s (25.360 %)
Converting the step to Cartesian:      0.000 s ( 5.036 %)
Storing new data                :      0.000 s ( 1.619 %)
Checking convergence            :      0.000 s ( 2.518 %)
Final printing                  :      0.000 s (24.281 %)
Total time                      :      0.001 s

Time for energy+gradient        :      1.035 s
Time for complete geometry iter :      1.044 s

         *************************************************************
         *                GEOMETRY OPTIMIZATION CYCLE   2            *
         *************************************************************
---------------------------------
CARTESIAN COORDINATES (ANGSTROEM)
---------------------------------
  N     -3.347464   -0.390512   -0.092239
  H     -3.189716   -0.483427    0.906497
  H     -2.583815   -0.891832   -0.532771
  H     -4.178889   -0.937357   -0.286921
  N     -3.965536    2.646222    0.162890
  H     -4.581101    2.867866   -0.611976
  H     -3.790984    1.641375    0.081064
  H     -3.079629    3.082051   -0.068832

----------------------------
CARTESIAN COORDINATES (A.U.)
----------------------------
  NO LB      ZA    FRAG     MASS         X           Y           Z
   0 N     7.0000    0    14.007   -6.325790   -0.737960   -0.174307
   1 H     1.0000    0     1.008   -6.027690   -0.913544    1.713032
   2 H     1.0000    0     1.008   -4.882704   -1.685318   -1.006791
   3 H     1.0000    0     1.008   -7.896956   -1.771348   -0.542203
   4 N     7.0000    0    14.007   -7.493777    5.000634    0.307818
   5 H     1.0000    0     1.008   -8.657027    5.419482   -1.156466
   6 H     1.0000    0     1.008   -7.163921    3.101749    0.153189
   7 H     1.0000    0     1.008   -5.819655    5.824233   -0.130074

--------------------------------
INTERNAL COORDINATES (ANGSTROEM)
--------------------------------
 N      0   0   0     0.000000000000     0.00000000     0.00000000
 H      1   0   0     1.015377664520     0.00000000     0.00000000
 H      1   2   0     1.014174062420   105.36938271     0.00000000
 H      1   2   3     1.014006472910   105.47883522   111.33958182
 N      1   2   3     3.109478258004    92.26626226   225.23048086
 H      5   1   2     1.014131870378   105.74778918   207.23252889
 H      5   1   2     1.023171947653     1.64874066   266.37735506
 H      5   1   2     1.014137076295   103.13905963    97.04647399

---------------------------
INTERNAL COORDINATES (A.U.)
---------------------------
 N      0   0   0     0.000000000000     0.00000000     0.00000000
 H      1   0   0     1.918785708444     0.00000000     0.00000000
 H      1   2   0     1.916511230100   105.36938271     0.00000000
 H      1   2   3     1.916194531824   105.47883522   111.33958182
 N      1   2   3     5.876062327009    92.26626226   225.23048086
 H      5   1   2     1.916431498695   105.74778918   207.23252889
 H      5   1   2     1.933514768975     1.64874066   266.37735506
 H      5   1   2     1.916441336453   103.13905963    97.04647399

------------------------------------------------------------------------------
                   ___                                                        
                  /   \      - P O W E R E D   B Y -                         
                 /     \                                                     
                 |  |  |   _    _      __       _____    __    __             
                 |  |  |  | |  | |    /  \     |  _  \  |  |  /  |          
                  \  \/   | |  | |   /    \    | | | |  |  | /  /          
                 / \  \   | |__| |  /  /\  \   | |_| |  |  |/  /          
                |  |  |   |  __  | /  /__\  \  |    /   |      \           
                |  |  |   | |  | | |   __   |  |    \   |  |\   \          
                \     /   | |  | | |  |  |  |  | |\  \  |  | \   \       
                 \___/    |_|  |_| |__|  |__|  |_| \__\ |__|  \__/        
                                                                              
                      - O R C A' S   B I G   F R I E N D -                    
                                      &                                       
                       - I N T E G R A L  F E E D E R -                       
                                                                              
 v1 FN, 2020, v2 2021, v3 2022-2024                                           
------------------------------------------------------------------------------


----------------------
SHARK INTEGRAL PACKAGE
----------------------

Number of atoms                             ...      8
Number of basis functions                   ...     58
Number of shells                            ...     30
Maximum angular momentum                    ...      2
Integral batch strategy                     ... SHARK/LIBINT Hybrid
RI-J (if used) integral strategy            ... SPLIT-RIJ (Revised 2003 algorithm where possible)
Printlevel                                  ...      1
Contraction scheme used                     ... SEGMENTED contraction
Prescreening option                         ... SCHWARTZ
   Thresh                                   ... 2.500e-11
   Tcut                                     ... 2.500e-12
   Tpresel                                  ... 2.500e-12 
Coulomb Range Separation                    ... NOT USED
Exchange Range Separation                   ... NOT USED
Multipole approximations                    ... NOT USED
Finite Nucleus Model                        ... NOT USED
CABS basis                                  ... NOT available
Auxiliary Coulomb fitting basis             ... NOT available
Auxiliary J/K fitting basis                 ... NOT available
Auxiliary Correlation fitting basis         ... NOT available
Auxiliary 'external' fitting basis          ... NOT available

Checking pre-screening integrals            ... done (  0.0 sec) Dimension = 30
   => SHARK Basis and OBASIS are compatible. Storing Pre-screening
Shell pair information
Shell pair cut-off parameter TPreSel        ...   2.5e-12
Total number of shell pairs                 ...       465
Shell pairs after pre-screening             ...       454
Total number of primitive shell pairs       ...      1890
Primitive shell pairs kept                  ...      1467
          la=0 lb=0:    168 shell pairs
          la=1 lb=0:    175 shell pairs
          la=1 lb=1:     52 shell pairs
          la=2 lb=0:     36 shell pairs
          la=2 lb=1:     20 shell pairs
          la=2 lb=2:      3 shell pairs

Checking whether 4 symmetric matrices of dimension 58 fit in memory
:Max Core in MB      =   4096.00
 MB in use           =      1.81
 MB left             =   4094.19
 MB needed           =      0.05
 Data fit in memory  = YES
Calculating Nuclear repulsion               ... done (  0.0 sec) ENN=     40.585450200094 Eh

Diagonalization of the overlap matrix:
Smallest eigenvalue                        ... 2.086e-02
Time for diagonalization                   ...    0.000 sec
Threshold for overlap eigenvalues          ... 1.000e-07
Number of eigenvalues below threshold      ... 0
Time for construction of square roots      ...    0.000 sec
Total time needed                          ...    0.000 sec

-------------------
DFT GRID GENERATION
-------------------

General Integration Accuracy     IntAcc      ... 4.388
Radial Grid Type                 RadialGrid  ... OptM3 with GC (2021)
Angular Grid (max. ang.)         AngularGrid ... 4 (Lebedev-302)
Angular grid pruning method      GridPruning ... 4 (adaptive)
Weight generation scheme         WeightScheme... mBecke (2022)
Basis function cutoff            BFCut       ... 1.0000e-11
Integration weight cutoff        WCut        ... 1.0000e-14
Partially contracted basis set               ... off
Rotationally invariant grid construction     ... off
Angular grids for H and He will be reduced by one unit

Total number of grid points                  ...    31886
Total number of batches                      ...      503
Average number of points per batch           ...       63
Average number of grid points per atom       ...     3986
Grids setup in   0.1 sec
Initializing property integral containers    ... done (  0.0 sec)

SHARK setup successfully completed in   0.1 seconds

Maximum memory used throughout the entire STARTUP-calculation: 11.5 MB
Occupation numbers will be reassigned to an Aufbau configuration
             **** ENERGY FILE WAS UPDATED (dimer.en.tmp) ****
Finished Guess after   0.0 sec
Maximum memory used throughout the entire GUESS-calculation: 4.3 MB
----------------------------------------D-I-I-S--------------------------------------------
Iteration    Energy (Eh)           Delta-E    RMSDP     MaxDP     DIISErr   Damp  Time(sec)
-------------------------------------------------------------------------------------------
               ***  Starting incremental Fock matrix formation  ***
    1    -112.3923605803185808     0.00e+00  1.39e-04  1.79e-03  5.08e-03  0.700   0.0
    2    -112.3924070766030354    -4.65e-05  1.20e-04  1.54e-03  3.53e-03  0.700   0.0
                               ***Turning on AO-DIIS***
                              *** Initializing SOSCF ***
---------------------------------------S-O-S-C-F--------------------------------------
Iteration    Energy (Eh)           Delta-E    RMSDP     MaxDP     MaxGrad    Time(sec)
--------------------------------------------------------------------------------------
    3    -112.3924421485079677    -3.51e-05  3.29e-04  4.09e-03  2.69e-03     0.0
               *** Restarting incremental Fock matrix formation ***
    4    -112.3925373298019110    -9.52e-05  6.95e-05  9.71e-04  2.79e-04     0.0
    5    -112.3925393094186518    -1.98e-06  5.04e-05  5.75e-04  1.21e-04     0.0
    6    -112.3925396994868890    -3.90e-07  5.98e-06  8.92e-05  5.46e-05     0.0
    7    -112.3925397241998496    -2.47e-08  1.51e-06  1.47e-05  1.14e-05     0.0
    8    -112.3925397261764090    -1.98e-09  6.76e-07  6.45e-06  2.36e-06     0.0
                 **** Energy Check signals convergence ****

               *****************************************************
               *                     SUCCESS                       *
               *           SCF CONVERGED AFTER   8 CYCLES          *
               *****************************************************

             **** ENERGY FILE WAS UPDATED (dimer.en.tmp) ****

----------------
TOTAL SCF ENERGY
----------------

Total Energy       :       -112.39253972620619 Eh           -3058.35649 eV

Components:
Nuclear Repulsion  :         40.58545020009424 Eh            1104.38625 eV
Electronic Energy  :       -152.97798992630044 Eh           -4162.74274 eV
One Electron Energy:       -232.75971733660265 Eh           -6333.71391 eV
Two Electron Energy:         79.78172741030221 Eh            2170.97117 eV

Virial components:
Potential Energy   :       -224.59899268069955 Eh           -6111.64930 eV
Kinetic Energy     :        112.20645295449337 Eh            3053.29281 eV
Virial Ratio       :          2.00165843199578

---------------
SCF CONVERGENCE
---------------

  Last Energy change         ...    1.9766e-09  Tolerance :   1.0000e-08
  Last MAX-Density change    ...    6.4483e-06  Tolerance :   1.0000e-07
  Last RMS-Density change    ...    6.7603e-07  Tolerance :   5.0000e-09
  Last DIIS Error            ...    2.6920e-03  Tolerance :   5.0000e-07
  Last Orbital Gradient      ...    2.3649e-06  Tolerance :   1.0000e-05
  Last Orbital Rotation      ...    4.9462e-06  Tolerance :   1.0000e-05


Total SCF time: 0 days 0 hours 0 min 0 sec 
Finished LeanSCF after   0.2 sec

Maximum memory used throughout the entire LEANSCF-calculation: 7.8 MB

------------------------------------------------------------------------------
                                ORCA  MP2 
------------------------------------------------------------------------------

Freezing NCore=4 chemical core electrons
MP2 will be done in the AO integral direct mode
The Q1-step will be done using symmetric double matrices
[...]


------------
NORMAL MODES
------------

These modes are the Cartesian displacements weighted by the diagonal matrix
M(i,i)=1/sqrt(m[i]) where m[i] is the mass of the displaced atom
Thus, these vectors are normalized but *not* orthogonal

                  0          1          2          3          4          5    
      0       0.000000   0.000000   0.000000   0.000000   0.000000   0.000000
      1       0.000000   0.000000   0.000000   0.000000   0.000000   0.000000
      2       0.000000   0.000000   0.000000   0.000000   0.000000   0.000000
      3       0.000000   0.000000   0.000000   0.000000   0.000000   0.000000
      4       0.000000   0.000000   0.000000   0.000000   0.000000   0.000000
      5       0.000000   0.000000   0.000000   0.000000   0.000000   0.000000
      6       0.000000   0.000000   0.000000   0.000000   0.000000   0.000000
      7       0.000000   0.000000   0.000000   0.000000   0.000000   0.000000
      8       0.000000   0.000000   0.000000   0.000000   0.000000   0.000000
      9       0.000000   0.000000   0.000000   0.000000   0.000000   0.000000
     10       0.000000   0.000000   0.000000   0.000000   0.000000   0.000000
     11       0.000000   0.000000   0.000000   0.000000   0.000000   0.000000
     12       0.000000   0.000000   0.000000   0.000000   0.000000   0.000000
     13       0.000000   0.000000   0.000000   0.000000   0.000000   0.000000
     14       0.000000   0.000000   0.000000   0.000000   0.000000   0.000000
     15       0.000000   0.000000   0.000000   0.000000   0.000000   0.000000
     16       0.000000   0.000000   0.000000   0.000000   0.000000   0.000000
     17       0.000000   0.000000   0.000000   0.000000   0.000000   0.000000
     18       0.000000   0.000000   0.000000   0.000000   0.000000   0.000000
     19       0.000000   0.000000   0.000000   0.000000   0.000000   0.000000
     20       0.000000   0.000000   0.000000   0.000000   0.000000   0.000000
     21       0.000000   0.000000   0.000000   0.000000   0.000000   0.000000
     22       0.000000   0.000000   0.000000   0.000000   0.000000   0.000000
     23       0.000000   0.000000   0.000000   0.000000   0.000000   0.000000
                  6          7          8          9         10         11    
      0       0.020411  -0.011930   0.039523   0.066012  -0.060581   0.014642
      1       0.001602  -0.037087   0.010593  -0.311279  -0.010495   0.009869
      2       0.013084   0.051589   0.010518  -0.040778  -0.019679  -0.051789
      3       0.360957   0.087836  -0.179238  -0.006583   0.072364  -0.066324
      4      -0.127928  -0.652795  -0.257722  -0.004481   0.196908   0.300305
      5      -0.063576  -0.060163   0.005360   0.018375  -0.009536   0.007871
      6      -0.256626   0.041490  -0.124508   0.047409   0.066351   0.008527
      7      -0.132269   0.454061  -0.354957  -0.567018   0.235698  -0.231118
      8      -0.326121  -0.262237   0.043042   0.137725  -0.015009   0.134122
      9      -0.200784   0.094131  -0.248743   0.016892   0.145668  -0.025776
     10       0.206189  -0.048687   0.514033  -0.303715  -0.366899   0.008558
     11       0.269592  -0.267912  -0.194254   0.102953   0.119301   0.080845
     12      -0.046104  -0.001102   0.001170  -0.057972   0.014245  -0.014330
     13      -0.000161   0.070059  -0.004115   0.302123   0.001362   0.038442
     14      -0.015705  -0.012172   0.000623   0.019732   0.004506   0.027815
     15       0.357727   0.010325  -0.158718  -0.070971   0.055472   0.143593
     16       0.027006  -0.133161  -0.323469   0.336494  -0.435008  -0.348786
     17      -0.368889  -0.092347   0.034382   0.043540  -0.182715  -0.252393
     18       0.009975  -0.090482   0.339371  -0.025245   0.482965  -0.185945
     19       0.002743   0.015021   0.047773   0.318611   0.071283  -0.058960
     20       0.049594   0.331783   0.089467  -0.066052   0.149053   0.617277
     21       0.085768   0.037784  -0.193628  -0.073219  -0.178936   0.121602
     22       0.004235  -0.092617   0.284322   0.347337   0.424930  -0.341324
     23       0.475823  -0.196859  -0.132809   0.055904   0.149759  -0.254577
                 12         13         14         15         16         17    
      0       0.015392  -0.002375  -0.021234   0.061491  -0.009827   0.000103
      1      -0.111902   0.003517  -0.015785   0.002831  -0.005522  -0.000913
      2       0.024717   0.005706  -0.056425  -0.024554  -0.018925  -0.004002
      3      -0.045221   0.008813   0.172657  -0.723303   0.081322   0.026728
      4       0.565757  -0.051074  -0.235945  -0.142175  -0.094678  -0.030242
      5       0.086836  -0.003355  -0.099867   0.089947  -0.040046  -0.011331
      6       0.094904  -0.007745   0.427241  -0.050375   0.160706   0.039968
      7       0.509065   0.004495   0.235879   0.179195   0.091721   0.009900
      8      -0.244385  -0.009316   0.478297  -0.300059   0.181399   0.053079
      9      -0.261363   0.015391  -0.304554  -0.082214  -0.111441  -0.034972
     10       0.472828  -0.020549   0.216778  -0.078429   0.082589   0.038767
     11      -0.189278  -0.006423   0.403376   0.553097   0.137761   0.025310
     12      -0.001588  -0.036216  -0.004311   0.001006  -0.005429   0.061648
     13       0.001918   0.020249  -0.022488   0.001493   0.057466   0.008887
     14       0.004033   0.102187   0.004734   0.000180  -0.015977   0.020112
     15       0.013938   0.342663   0.134142  -0.006941  -0.356974   0.015629
     16      -0.009703  -0.149966   0.223886  -0.016982  -0.481950  -0.408580
     17      -0.016788  -0.373247  -0.039625   0.000537   0.132862  -0.115984
     18       0.004727   0.187646   0.035883  -0.009500   0.102922  -0.743330
     19       0.001043   0.088742  -0.022405  -0.000138   0.087588  -0.109645
     20      -0.015998  -0.618274   0.118144  -0.011571  -0.277219  -0.242340
     21       0.001187  -0.010503  -0.110407   0.003880   0.335462  -0.162106
     22      -0.010681  -0.201892   0.113630  -0.001556  -0.407074   0.388995
     23      -0.019888  -0.488652  -0.142046   0.006754   0.350237   0.067403
                 18         19         20         21         22         23    
      0      -0.000349   0.005347   0.000207   0.000761   0.067720   0.039780
      1       0.003384  -0.036830  -0.000782   0.000039   0.000269   0.019982
      2      -0.001221   0.007841  -0.000720   0.000022  -0.041192   0.065517
      3       0.008282  -0.089254  -0.000449  -0.000200   0.072658  -0.112423
      4      -0.002997   0.043070   0.000018  -0.000064  -0.043921   0.106639
      5       0.053191  -0.561678  -0.003657  -0.001908   0.315734  -0.732439
      6       0.039205  -0.460235  -0.014335  -0.005019  -0.628610   0.085428
      7      -0.018583   0.188882   0.004603   0.002256   0.310085  -0.030253
      8      -0.025058   0.298294   0.009229   0.003366   0.394058  -0.029000
      9      -0.041720   0.475066   0.012198  -0.004640  -0.385162  -0.525924
     10      -0.026055   0.281026   0.006182  -0.002650  -0.270136  -0.353802
     11      -0.013699   0.154024   0.003666  -0.001521  -0.137159  -0.149419
     12      -0.013756  -0.001096  -0.001388  -0.073885   0.000543   0.000259
     13       0.024777   0.000754   0.072947  -0.010687  -0.000408   0.000673
     14       0.030360   0.003336  -0.027829  -0.024230   0.000295  -0.000067
     15      -0.335927  -0.037528   0.352539   0.457769  -0.004677   0.000032
     16       0.131753   0.014438  -0.118898  -0.188462   0.001782   0.000587
     17      -0.313744  -0.036038   0.361642   0.505400  -0.005202  -0.000152
     18       0.116405   0.008236   0.120890  -0.023908  -0.000291   0.001803
     19      -0.717697  -0.051701  -0.655763  -0.003824   0.006060  -0.007284
     20      -0.032862  -0.001361  -0.075412  -0.007938   0.000080   0.000166
     21       0.409748   0.044640  -0.454434   0.592126  -0.002493  -0.005292
     22       0.242264   0.025590  -0.238922   0.340705  -0.001936  -0.002908
     23      -0.072746  -0.008560   0.101243  -0.160998   0.000786   0.001357


-----------
IR SPECTRUM
-----------

 Mode   freq       eps      Int      T**2         TX        TY        TZ
       cm**-1   L/(mol*cm) km/mol    a.u.
----------------------------------------------------------------------------
  7:     87.64   0.014840   74.99  0.052838  ( 0.055732 -0.151830 -0.163339)
  8:    116.22   0.009078   45.88  0.024375  (-0.148371 -0.026485 -0.040744)
  9:    137.77   0.001732    8.75  0.003922  (-0.019129  0.045269  0.038823)
 10:    281.57   0.014118   71.35  0.015647  ( 0.117122  0.021947  0.038053)
 11:    365.67   0.014687   74.22  0.012534  (-0.002836 -0.097420  0.055096)
 12:   1126.36   0.029956  151.38  0.008299  (-0.010497  0.086979 -0.024976)
 13:   1174.61   0.032990  166.72  0.008765  ( 0.031244 -0.024332 -0.084831)
 14:   1716.58   0.003677   18.58  0.000669  ( 0.010050  0.011720  0.020741)
 15:   1720.93   0.003676   18.58  0.000667  (-0.023923 -0.002515  0.009382)
 16:   1727.74   0.002622   13.25  0.000474  ( 0.005819 -0.017273  0.011890)
 17:   1761.95   0.002618   13.23  0.000464  (-0.020830 -0.001987 -0.005081)
 18:   3528.31   0.012970   65.55  0.001147  ( 0.004497 -0.033454  0.002779)
 19:   3565.05   0.000006    0.03  0.000001  ( 0.000107 -0.000374 -0.000605)
 20:   3674.39   0.009498   48.00  0.000807  ( 0.005312 -0.027808 -0.002266)
 21:   3709.05   0.000072    0.36  0.000006  (-0.002351 -0.000221 -0.000681)
 22:   3719.78   0.000549    2.78  0.000046  (-0.005629 -0.000398  0.003775)
 23:   3720.31   0.000674    3.41  0.000057  (-0.003658 -0.001423 -0.006415)

* The epsilon (eps) is given for a Dirac delta lineshape.
** The dipole moment derivative (T) already includes vibrational overlap.

The first frequency considered to be a vibration is 7
The total number of vibrations considered is 17


--------------------------
THERMOCHEMISTRY AT 298.15K
--------------------------

Temperature         ...   298.15 K
Pressure            ...     1.00 atm
Total Mass          ...    34.06 AMU
Quasi RRHO          ...     True
Cut-Off Frequency   ...     1.00 cm^-1

Throughout the following assumptions are being made:
  (1) The electronic state is orbitally nondegenerate
  (2) There are no thermally accessible electronically excited states
  (3) Hindered rotations indicated by low frequency modes are not
      treated as such but are treated as vibrations and this may
      cause some error
  (4) All equations used are the standard statistical mechanics
      equations for an ideal gas
  (5) All vibrations are strictly harmonic

freq.      87.64  E(vib)   ...       0.48 
freq.     116.22  E(vib)   ...       0.44 
freq.     137.77  E(vib)   ...       0.42 
freq.     281.57  E(vib)   ...       0.28 
freq.     365.67  E(vib)   ...       0.22 
freq.    1126.36  E(vib)   ...       0.01 
freq.    1174.61  E(vib)   ...       0.01 
freq.    1716.58  E(vib)   ...       0.00 
freq.    1720.93  E(vib)   ...       0.00 
freq.    1727.74  E(vib)   ...       0.00 
freq.    1761.95  E(vib)   ...       0.00 
freq.    3528.31  E(vib)   ...       0.00 
freq.    3565.05  E(vib)   ...       0.00 
freq.    3674.39  E(vib)   ...       0.00 
freq.    3709.05  E(vib)   ...       0.00 
freq.    3719.78  E(vib)   ...       0.00 
freq.    3720.31  E(vib)   ...       0.00 

------------
INNER ENERGY
------------

The inner energy is: U= E(el) + E(ZPE) + E(vib) + E(rot) + E(trans)
    E(el)   - is the total energy from the electronic structure calculation
              = E(kin-el) + E(nuc-el) + E(el-el) + E(nuc-nuc)
    E(ZPE)  - the the zero temperature vibrational energy from the frequency calculation
    E(vib)  - the the finite temperature correction to E(ZPE) due to population
              of excited vibrational states
    E(rot)  - is the rotational thermal energy
    E(trans)- is the translational thermal energy

Summary of contributions to the inner energy U:
Electronic energy                ...   -112.76863543 Eh
Zero point energy                ...      0.07320654 Eh      45.94 kcal/mol
Thermal vibrational correction   ...      0.00296400 Eh       1.86 kcal/mol
Thermal rotational correction    ...      0.00141627 Eh       0.89 kcal/mol
Thermal translational correction ...      0.00141627 Eh       0.89 kcal/mol
-----------------------------------------------------------------------
Total thermal energy                   -112.68963235 Eh


Summary of corrections to the electronic energy:
(perhaps to be used in another calculation)
Total thermal correction                  0.00579654 Eh       3.64 kcal/mol
Non-thermal (ZPE) correction              0.07320654 Eh      45.94 kcal/mol
-----------------------------------------------------------------------
Total correction                          0.07900308 Eh      49.58 kcal/mol


--------
ENTHALPY
--------

The enthalpy is H = U + kB*T
                kB is Boltzmann's constant
Total thermal energy              ...   -112.68963235 Eh 
Thermal Enthalpy correction       ...      0.00094421 Eh       0.59 kcal/mol
-----------------------------------------------------------------------
Total Enthalpy                    ...   -112.68868814 Eh


Note: Only C1 symmetry has been detected, increase convergence thresholds 
      if your molecule has a higher symmetry. Symmetry factor of 1.0 is   
      used for the rotational entropy correction. 
 

Note: Rotational entropy computed according to Herzberg 
Infrared and Raman Spectra, Chapter V,1, Van Nostrand Reinhold, 1945 
Point Group:  C1, Symmetry Number:   1  
Rotational constants in cm-1:     3.842193     0.171582     0.170039 

Vibrational entropy computed according to the QRRHO of S. Grimme
Chem.Eur.J. 2012 18 9955 using a reference frequency of 100.0 cm-1


-------
ENTROPY
-------

The entropy contributions are T*S = T*(S(el)+S(vib)+S(rot)+S(trans))
     S(el)   - electronic entropy
     S(vib)  - vibrational entropy
     S(rot)  - rotational entropy
     S(trans)- translational entropy
The entropies will be listed as multiplied by the temperature to get
units of energy

Electronic entropy                ...      0.00000000 Eh      0.00 kcal/mol
Vibrational entropy               ...      0.00559333 Eh      3.51 kcal/mol
Rotational entropy                ...      0.01054392 Eh      6.62 kcal/mol
Translational entropy             ...      0.01734594 Eh     10.88 kcal/mol
-----------------------------------------------------------------------
Final entropy term                ...      0.03348319 Eh     21.01 kcal/mol

In case the symmetry of your molecule has not been determined correctly
or in case you have a reason to use a different symmetry number we print 
out the resulting rotational entropy values for sn=1,12:

 non-linear molecules -----------------------------------
|  sn= 1 | S(rot)=       0.01054392 Eh      6.62 kcal/mol|
|  sn= 2 | S(rot)=       0.00988947 Eh      6.21 kcal/mol|
|  sn= 3 | S(rot)=       0.00950663 Eh      5.97 kcal/mol|
|  sn= 4 | S(rot)=       0.00923501 Eh      5.80 kcal/mol|
|  sn= 5 | S(rot)=       0.00902432 Eh      5.66 kcal/mol|
|  sn= 6 | S(rot)=       0.00885218 Eh      5.55 kcal/mol|
|  sn= 7 | S(rot)=       0.00870663 Eh      5.46 kcal/mol|
|  sn= 8 | S(rot)=       0.00858055 Eh      5.38 kcal/mol|
|  sn= 9 | S(rot)=       0.00846934 Eh      5.31 kcal/mol|
|  sn=10 | S(rot)=       0.00836987 Eh      5.25 kcal/mol|
|  sn=11 | S(rot)=       0.00827988 Eh      5.20 kcal/mol|
|  sn=12 | S(rot)=       0.00819772 Eh      5.14 kcal/mol|
 linear molecules ---------------------------------------
|  Dinfh | S(rot)=       0.00699864 Eh      4.39 kcal/mol|
|  Cinfv | S(rot)=       0.00765310 Eh      4.80 kcal/mol|
 --------------------------------------------------------


-------------------
GIBBS FREE ENERGY
-------------------

The Gibbs free energy is G = H - T*S

Total enthalpy                    ...   -112.68868814 Eh 
Total entropy correction          ...     -0.03348319 Eh    -21.01 kcal/mol
-----------------------------------------------------------------------
Final Gibbs free energy         ...   -112.72217133 Eh

For completeness - the Gibbs free energy minus the electronic energy
G-E(el)                           ...      0.04646410 Eh     29.16 kcal/mol



--------------------------------
SUGGESTED CITATIONS FOR THIS RUN
--------------------------------

Below you find a list of papers that are relevant to this ORCA run
We neither can nor want to force you to cite these papers, but we appreciate if you do
You receive ORCA, which is the product of decades of hard work by many enthusiastic individuals, for free
The only thing we kindly ask in return is that you cite our papers,
We deeply appreciate it, if you show your appreciation for ORCA by not just citing the generic ORCA reference.

Please note that relegating all ORCA citations to the supporting information does *not* help us.
SI sections are not indexed - citations you put there will not count into any citation statistics
But we need these citations in order to attract the funding resources that allow us to do what we are doing

Therefore, if you are a happy ORCA user, please consider citing a few of the papers listed below in the main body of your paper

In addition to the list printed below, the program has created the file dimer.bibtex that contains the list in bibtex format
You can import this file easily into all common literature databanks and citation aid programs


List of essential papers. We consider these as the minimum necessary citations

  1. Neese, F.
     Software update: the ORCA program system, version 6.0
     WIRES Comput. Molec. Sci. 2025 15(1), e70019
     doi.org/10.1002/wcms.7019

List of papers to cite with high priority. The work reported in these papers was absolutely
necessary for this run to complete.
Our perspective: the developers of density functionals and basis sets usually get cited in chemistry papers
Good! But without the algorithms to do something with them, the functionals or basis sets would not do anything.
Hence, in our opinion, the algorithm design and method developments papers are equally worthy of getting cited

  1. Neese, F.
     The SHARK Integral Generation and Digestion System
     J. Comp. Chem. 2022 44(3), 381
     doi.org/10.1002/jcc.26942

List of suggested additional citations. These are papers that are important in the 'surrounding' of 
of this run, or papers that preceded the highly important papers. If you like your results we are grateful for a citation.

  1. Neese, F.
     The ORCA program system
     WIRES Comput. Molec. Sci. 2012 2(1), 73-78
     doi.org/10.1002/wcms.81
  2. Neese, F.
     Software update: the ORCA program system, version 4.0
     WIRES Comput. Molec. Sci. 2018 8(1), 1-6
     doi.org/10.1002/wcms.1327
  3. Neese, F.; Wennmohs, F.; Becker, U.; Riplinger, C.
     The ORCA quantum chemistry program package
     J. Chem. Phys. 2020 152(22), 224108
     doi.org/10.1063/5.0004608
  4. Neese, F.
     Software update: The ORCA program system—Version 5.0
     WIRES Comput. Molec. Sci. 2022 12(1), e1606
     doi.org/10.1002/wcms.1606

List of optional additional citations

  1. Neese, F.
     Approximate second-order SCF convergence for spin unrestricted wavefunctions
     Chem. Phys. Lett. 2000 325(1-3), 93-98
     doi.org/10.1016/s0009-2614(00)00662-x

Timings for individual modules:

Sum of individual times          ...       62.539 sec (=   1.042 min)
Startup calculation              ...        2.270 sec (=   0.038 min)   3.6 %
SCF iterations                   ...        5.102 sec (=   0.085 min)   8.2 %
Property calculations            ...        0.033 sec (=   0.001 min)   0.1 %
MP2 module                       ...       12.369 sec (=   0.206 min)  19.8 %
Geometry relaxation              ...        0.017 sec (=   0.000 min)   0.0 %
Numerical frequency calculation  ...       42.748 sec (=   0.712 min)  68.4 %
                             ****ORCA TERMINATED NORMALLY****
TOTAL RUN TIME: 0 days 0 hours 1 minutes 2 seconds 158 msec
