
                                 *****************
                                 * O   R   C   A *
                                 *****************

                                            #,                                       
                                            ###                                      
                                            ####                                     
                                            #####                                    
                                            ######                                   
                                           ########,                                 
                                     ,,################,,,,,                         
                               ,,#################################,,                 
                          ,,##########################################,,             
                       ,#########################################, ''#####,          
                    ,#############################################,,   '####,        
                  ,##################################################,,,,####,       
                ,###########''''           ''''###############################       
              ,#####''   ,,,,##########,,,,          '''####'''          '####       
            ,##' ,,,,###########################,,,                        '##       
           ' ,,###''''                  '''############,,,                           
         ,,##''                                '''############,,,,        ,,,,,,###''
      ,#''                                            '''#######################'''  
     '                                                          ''''####''''         
             ,#######,   #######,   ,#######,      ##                                
            ,#'     '#,  ##    ##  ,#'     '#,    #''#        ,####,    ,#,          
            ##       ##  ##   ,#'  ##            #'  '#       #'       ,# #          
            ##       ##  #######   ##           ,######,      #####,      #          
            '#,     ,#'  ##    ##  '#,     ,#' ,#      #,     #,   #      #          
             '#######'   ##     ##  '#######'  #'      '#     '####' #    #          



                #########################################################
                #                        -***-                          #
                #          Department of theory and spectroscopy        #
                #                                                       #
                #                      Frank Neese                      #
                #                                                       #
                #     Directorship, Architecture, Infrastructure        #
                #                    SHARK, DRIVERS                     #
                #        Core code/Algorithms in most modules           #
                #                                                       #
                #        Max Planck Institute fuer Kohlenforschung      #
                #                Kaiser Wilhelm Platz 1                 #
                #                 D-45470 Muelheim/Ruhr                 #
                #                      Germany                          #
                #                                                       #
                #                  All rights reserved                  #
                #                        -***-                          #
                #########################################################


                         Program Version 6.1.0  -  RELEASE   -
                                (GIT: $679e74b$)
                          ($2025-06-10 18:02:51 +0200$)


 With contributions from (in alphabetic order):
[Max-Planck-Institut fuer Kohlenforschung]                               
  Daniel Aravena         : Magnetic Suceptibility                        
  Michael Atanasov       : Ab Initio Ligand Field Theory (pilot matlab implementation)
  Alexander A. Auer      : GIAO ZORA, VPT2 properties, NMR spectrum      
  Ute Becker             : All parallelization in ORCA, NUMFREQ, NUMCALC 
  Giovanni Bistoni       : ED, misc. LED, open-shell LED, HFLD           
  Dmytro Bykov           : pre 5.0 version of the SCF Hessian            
  Marcos Casanova-Páez   : Triplet and SCS-CIS(D). UHF-(DLPNO)-IP/EA/STEOM-CCSD. UHF-CVS-IP/STEOM-CCSD   
  Vijay G. Chilkuri      : MRCI spin determinant printing, contributions to CSF-ICE 
  Pauline Colinet        : FMM embedding                                 
  Dipayan Datta          : RHF DLPNO-CCSD density                        
  Achintya Kumar Dutta   : EOM-CC, STEOM-CC                              
  Nicolas Foglia         : Exact transition moments, OPA infrastructure, MCD improvements    
  Dmitry Ganyushin       : Spin-Orbit,Spin-Spin,Magnetic field MRCI      
  Miquel Garcia-Rates    : C-PCM and meta-GGA Hessian, CCSD/C-PCM, Gaussian charge scheme 
  Tiago L. C. Gouveia    : GS-ROHF, GS-ROCIS                             
  Yang Guo               : DLPNO-NEVPT2, F12-NEVPT2, CIM, IAO-localization        
  Andreas Hansen         : Spin unrestricted coupled pair/coupled cluster methods 
  Ingolf Harden          : AUTO-CI MPn and infrastructure                
  Benjamin Helmich-Paris : MC-RPA, TRAH-(SCF,CASSCF), AVAS, COSX integrals, SCF dyn. polar., MC-PDFT, srDFT 
  Lee Huntington         : MR-EOM, pCC                                   
  Robert Izsak           : Overlap fitted RIJCOSX, COSX-SCS-MP3, EOM     
  Riya Kayal             : Wick's Theorem for AUTO-CI, AUTO-CI UHF-CCSDT 
  Emily Kempfer          : AUTO-CI RHF CISDT and CCSDT, approximate NEVPT4
  Christian Kollmar      : KDIIS, OOCD, Brueckner-CCSD(T), CCSD density, CASPT2, CASPT2-K, improved NEVPT2 
  Axel Koslowski         : Symmetry handling                             
  Simone Kossmann        : meta-GGA functionals, TD-DFT gradient, OOMP2, (MP2 Hessian; deprecated post 5.0) 
  Lucas Lang             : DCDCAS, Hyperfine gauge corrections, ICE-SOC+SSC
  Marvin Lechner         : AUTO-CI (C++ implementation), FIC-MRCC        
  Spencer Leger          : CASSCF response                               
  Dagmar Lenk            : GEPOL surface, SMD, ORCA-2-JSON               
  Dimitrios Liakos       : Extrapolation schemes; Compound Job, Property file
  Dimitrios Manganas     : Further ROCIS development; embedding schemes. LFT, Crystal Embedding 
  Dimitrios Pantazis     : SARC Basis sets                               
  Anastasios Papadopoulos: AUTO-CI, single reference methods and gradients 
  Taras Petrenko         : pre 6.0 DFT Hessian and TD-DFT gradient,  ECA, NRVS 
  Petra Pikulova         : Analytic Raman intensities                    
  Peter Pinski           : DLPNO-MP2, DLPNO-MP2 Gradient                 
  Shashank Vittal Rao    : ES-AILFT, MagRelax                            
  Christoph Reimann      : Effective Core Potentials                     
  Marius Retegan         : Local ZFS, SOC                                
  Christoph Riplinger    : Optimizer, TS searches, QM/MM, DLPNO-CCSD(T), (RO)-DLPNO pert. Triples 
  Michael Roemelt        : Original ROCIS implementation, recursive CI coupling coefficients
  Masaaki Saitow         : Open-shell DLPNO-CCSD energy and density      
  Barbara Sandhoefer     : DKH picture change effects                    
  Yorick L. A. Schmerwitz: GMF and freeze-and-release deltaSCF, NEB S-IDPP initial path                    
  Kantharuban Sivalingam : CASSCF convergence/infrastructure, NEVPT2, NEVPT3, NEVPT4(SD), FIC-MRCI and CEPA variants
  Bernardo de Souza      : ESD, SOC TD-DFT                               
  Georgi L. Stoychev     : AutoAux, RI-MP2 NMR, DLPNO-MP2 response, X2C  
  Van Anh Tran           : RI-MP2 g-tensors                              
  Willem Van den Heuvel  : Paramagnetic NMR                              
  Zikuan Wang            : NOTCH, Electric field optimization            
  Frank Wennmohs         : Technical directorship and infrastructure     
  Hang Xu                : AUTO-CI-Response properties                   
                                                                         
[FACCTs GmbH]                                                            
  Markus Bursch, Nicolas Foglia, Miquel Garcia-Rates, Ingolf Harden, Hagen Neugebauer, Anastasios Papadopoulos, 
  Christoph Riplinger, Bernardo de Souza, Georgi L. Stoychev                                                    
                                                                 
  APM, various basis sets, CI-OPT, improved COSX, DLPNO-Multilevel,           
  DOCKER, DRACO, updates on ESD, Fragmentator, GOAT, IRC, LR-CPCM, L-BFGS, MBIS, meta-GGA TD-DFT gradient, ML-optimized integration grids, 
  MM, NACMEs, nearIR, NEB, NEB-TS, NL-DFT gradient (VV10), 2- and 3-layer-ONIOM, interface openCOSMO-RS, QMMM,   
  Crystal-QMMM, RESP, rigid body optimization, SF, symmetry and pop. for TD-DFT, various functionals, SOLVATOR                                   
                                                                         
[Other institutions]                                                     
  V. Asgeirsson          : NEB                                           
  Christoph Bannwarth    : sTDA-DFT, sTD-DFT, PBEh-3c, B97-3c, D3        
  Giovanni Bistoni       : ETS/NOCV, ADLD/ADEX, COVALED                  
  Martin Brehm           : Molecular dynamics                            
  Ronald Cardenas        : ETS/NOCV                                      
  Martina Colucci        : COVALED                                       
  Sebastian Ehlert       : rSCAN, r2SCAN, r2SCAN-3c, D4, dhf basis sets  
  Marvin Friede          : D4 for Fr, Ra, Ac-Lr                          
  Lars Goerigk           : TD-DFT with DH, B97 family of functionals     
  Stefan Grimme          : VdW corrections, initial TS optimization, DFT functionals, gCP, sTDA/sTD-DF 
  Waldemar Hujo          : DFT-NL                                        
  H. Jonsson             : NEB                                           
  Holger Kruse           : gCP                                           
  Marcel Mueller         : wB97X-3c, vDZP basis set                      
  Hagen Neugebauer       : wr2SCAN, Native XTB                           
  Gianluca Regni         : ADLD/ADEX                                     
  Tobias Risthaus        : pre 6.0 range-separated hybrid DFT and stability analysis
  Lukas Wittmann         : regularized MP2, r2SCAN double-hybrids, wr2SCAN        
                                                                         
We gratefully acknowledge several colleagues who have allowed us to      
interface, adapt or use parts of their codes:                            
  Ed Valeev, F. Pavosevic, A. Kumar             : LibInt (2-el integral package), F12 methods 
  Garnet Chan, S. Sharma, J. Yang, R. Olivares  : DMRG                   
  Ulf Ekstrom                                   : XCFun DFT Library      
  Mihaly Kallay                                 : mrcc  (arbitrary order and MRCC methods)
  Frank Weinhold                                : gennbo (NPA and NBO analysis)           
  Simon Mueller                                 : openCOSMO-RS                            
  Christopher J. Cramer and Donald G. Truhlar   : smd solvation model                     
  S Lehtola, MJT Oliveira, MAL Marques          : LibXC Library                           
  Liviu Ungur et al                             : ANISO software                          


 Your calculation uses the libint2 library for the computation of 2-el integrals
 For citations please refer to: http://libint.valeyev.net

 Your ORCA version has been built with support for libXC version: 7.0.0
 For citations please refer to: https://libxc.gitlab.io

 This ORCA versions uses:
   CBLAS   interface :  Fast vector & matrix operations
   LAPACKE interface :  Fast linear algebra routines
   SCALAPACK package :  Parallel linear algebra routines
   Shared memory     :  Shared parallel matrices
   BLAS/LAPACK       :  OpenBLAS 0.3.29  USE64BITINT DYNAMIC_ARCH NO_AFFINITY Haswell SINGLE_THREADED
        Core in use  :  Haswell
   Copyright (c) 2011-2014, The OpenBLAS Project


  ***********************************
  * Starting time: Tue Jul 22 17:01:14 2025
  * Host name:     debian
  * Process ID:    123429
  * Working dir.:  /home/uni/mm/lab3
  ***********************************

Warning: RI is on but no J-basis has been assigned. Assigning Def2/J (nothing to worry about!)
================================================================================

----- Orbital basis set information -----
Your calculation utilizes the basis: 6-31G(d,p)
   H-He, Li-Ne : W. J. Hehre, R. Ditchfield and J.A. Pople, J. Chem. Phys. 56, 2257 (1972).
                 Note: He and Ne are unpublished basis sets taken from the Gaussian program.
                 Note: Li and B from J. D. Dill and J. A. Pople, J. Chem. Phys. 62, 2921 (1975).
   Na - Ar     : M. M. Francl, W. J. Pietro, W. J. Hehre, J. S. Binkley, M. S. Gordon, 
                 D. J. DeFrees and J. A. Pople, J. Chem. Phys. 77, 3654 (1982).
   K - Zn      : V. A. Rassolov, J. A. Pople, M. A. Ratner, and T. L. Windus, J. Chem. Phys. 109, 1223 (1998).

----- AuxJ basis set information -----
Your calculation utilizes the auxiliary basis: def2/J
   H-Rn: F. Weigend, Phys. Chem. Chem. Phys. 8, 1057 (2006).
   Fr-Lr: K. Eichkorn, F. Weigend, O. Treutler, R. Ahlrichs; Theor. Chem. Acc. 97, 119 (1997).

================================================================================
                                        WARNINGS
                       Please study these warnings very carefully!
================================================================================


WARNING: Geometry Optimization
  ===> : Switching off AutoStart
         For restart on a previous wavefunction, please use MOREAD

================================================================================
                                       INPUT FILE
================================================================================
NAME = water-scan.inp
|  1> ! B3LYP 6-31G(d,p) opt 
|  2> 
|  3> %pal
|  4>   nprocs 6 
|  5> end
|  6> 
|  7> %geom
|  8>   Scan
|  9>     A 1 0 2 = 94.0, 114.0, 21
| 10>   end
| 11> end
| 12> 
| 13> * xyz 0 1  
| 14> O     -4.384610    2.044134    0.002088
| 15> H     -3.527125    1.831276    0.657392
| 16> H     -3.999512    2.829153   -0.665428
| 17> *
| 18> 
| 19> 
| 20>                          ****END OF INPUT****
================================================================================

                       ******************************
                       *    Relaxed Surface Scan    *
                       ******************************

                Angle (  1,   0,   2):   range=  94.00000000 .. 114.00000000  steps =   21

There is 1 parameter to be scanned.
There will be   21 constrained geometry optimizations.


         *************************************************************
         *               RELAXED SURFACE SCAN STEP   1               *
         *                                                           *
         *           Angle (  1,   0,   2)  :  94.00000000           *
         *************************************************************

Geometry optimization settings:
Update method            Update   .... BFGS
Choice of coordinates    CoordSys .... (2022) Redundant Internals
Initial Hessian          InHess   .... Almloef's Model
Max. no of cycles        MaxIter  .... 50

Convergence Tolerances:
Energy Change            TolE     ....  5.0000e-06 Eh
Max. Gradient            TolMAXG  ....  3.0000e-04 Eh/bohr
RMS Gradient             TolRMSG  ....  1.0000e-04 Eh/bohr
Max. Displacement        TolMAXD  ....  4.0000e-03 bohr
RMS Displacement         TolRMSD  ....  2.0000e-03 bohr
Strict Convergence                .... False

------------------------------------------------------------------------------
                        ORCA OPTIMIZATION COORDINATE SETUP
------------------------------------------------------------------------------

The optimization will be done in redundant internal coordinates (2022)
Making redundant internal coordinates   ...  (2022 redundants) done
Evaluating the initial hessian          ...  (Almloef) done
Evaluating the coordinates              ...  done
Calculating the B-matrix                .... done
Calculating the G-matrix                .... done
The number of degrees of freedom        ....    3
Storing new coordinates                 .... done

    -----------------------------------------------------------------
                    Redundant Internal Coordinates


    -----------------------------------------------------------------
         Definition                    Initial Value    Approx d2E/dq
    -----------------------------------------------------------------
      1. B(H   1,O   0)                  1.1035         0.310883   
      2. B(H   2,O   0)                  1.1035         0.310820   
      3. A(H   1,O   0,H   2)           94.0000         0.273464 C 
    -----------------------------------------------------------------

Number of atoms                         .... 3
Number of degrees of freedom            .... 3


         *************************************************************
         *                GEOMETRY OPTIMIZATION CYCLE   1            *
         *************************************************************
---------------------------------
CARTESIAN COORDINATES (ANGSTROEM)
---------------------------------
  O     -4.426134    2.025014    0.002496
  H     -3.521290    1.872369    0.615387
  H     -3.963823    2.807180   -0.623831

----------------------------
CARTESIAN COORDINATES (A.U.)
----------------------------
  NO LB      ZA    FRAG     MASS         X           Y           Z
   0 O     8.0000    0    15.999   -8.364181    3.826722    0.004716
   1 H     1.0000    0     1.008   -6.654274    3.538264    1.162914
   2 H     1.0000    0     1.008   -7.490540    5.304801   -1.178870

--------------------------------
INTERNAL COORDINATES (ANGSTROEM)
--------------------------------
 O      0   0   0     0.000000000000     0.00000000     0.00000000
 H      1   0   0     1.100005629897     0.00000000     0.00000000
 H      1   2   0     1.100060412078   103.10209884     0.00000000

---------------------------
INTERNAL COORDINATES (A.U.)
---------------------------
 O      0   0   0     0.000000000000     0.00000000     0.00000000
 H      1   0   0     2.078709386277     0.00000000     0.00000000
 H      1   2   0     2.078812909596   103.10209884     0.00000000

---------------------
BASIS SET INFORMATION
---------------------
There are 2 groups of distinct atoms

 Group   1 Type O   : 10s4p1d contracted to 3s2p1d pattern {631/31/1}
 Group   2 Type H   : 4s1p contracted to 2s1p pattern {31/1}

Atom   0O    basis set group =>   1
Atom   1H    basis set group =>   2
Atom   2H    basis set group =>   2
---------------------------------
AUXILIARY/J BASIS SET INFORMATION
---------------------------------
There are 2 groups of distinct atoms

 Group   1 Type O   : 12s5p4d2f1g contracted to 6s4p3d1f1g pattern {711111/2111/211/2/1}
 Group   2 Type H   : 5s2p1d contracted to 3s1p1d pattern {311/2/1}

Atom   0O    basis set group =>   1
Atom   1H    basis set group =>   2
Atom   2H    basis set group =>   2


           ************************************************************
           *        Program running with 6 parallel MPI-processes     *
           *              working on a common directory               *
           ************************************************************
------------------------------------------------------------------------------
                             ORCA STARTUP CALCULATIONS
                           -- RI-GTO INTEGRALS CHOSEN --
------------------------------------------------------------------------------
------------------------------------------------------------------------------
                   ___                                                        
                  /   \      - P O W E R E D   B Y -                         
                 /     \                                                     
                 |  |  |   _    _      __       _____    __    __             
                 |  |  |  | |  | |    /  \     |  _  \  |  |  /  |          
                  \  \/   | |  | |   /    \    | | | |  |  | /  /          
                 / \  \   | |__| |  /  /\  \   | |_| |  |  |/  /          
                |  |  |   |  __  | /  /__\  \  |    /   |      \           
                |  |  |   | |  | | |   __   |  |    \   |  |\   \          
                \     /   | |  | | |  |  |  |  | |\  \  |  | \   \       
                 \___/    |_|  |_| |__|  |__|  |_| \__\ |__|  \__/        
                                                                              
                      - O R C A' S   B I G   F R I E N D -                    
                                      &                                       
                       - I N T E G R A L  F E E D E R -                       
                                                                              
 v1 FN, 2020, v2 2021, v3 2022-2024                                           
------------------------------------------------------------------------------


----------------------
SHARK INTEGRAL PACKAGE
----------------------

Number of atoms                             ...      3
Number of basis functions                   ...     24
Number of shells                            ...     12
Maximum angular momentum                    ...      2
Integral batch strategy                     ... SHARK/LIBINT Hybrid
RI-J (if used) integral strategy            ... SPLIT-RIJ (Revised 2003 algorithm where possible)
Printlevel                                  ...      1
Contraction scheme used                     ... SEGMENTED contraction
Prescreening option                         ... SCHWARTZ
   Thresh                                   ... 2.500e-11
   Tcut                                     ... 2.500e-12
   Tpresel                                  ... 2.500e-12 
Coulomb Range Separation                    ... NOT USED
Exchange Range Separation                   ... NOT USED
Multipole approximations                    ... NOT USED
Finite Nucleus Model                        ... NOT USED
CABS basis                                  ... NOT available
Auxiliary Coulomb fitting basis             ... AVAILABLE
   # of basis functions in Aux-J            ...     71
   # of shells in Aux-J                     ...     25
   Maximum angular momentum in Aux-J        ...      4
Auxiliary J/K fitting basis                 ... NOT available
Auxiliary Correlation fitting basis         ... NOT available
Auxiliary 'external' fitting basis          ... NOT available

Checking pre-screening integrals            ... done (  0.0 sec) Dimension = 12
   => SHARK Basis and OBASIS are compatible. Storing Pre-screening
Shell pair information
Shell pair cut-off parameter TPreSel        ...   2.5e-12
Total number of shell pairs                 ...        78
Shell pairs after pre-screening             ...        78
Total number of primitive shell pairs       ...       352
Primitive shell pairs kept                  ...       337
          la=0 lb=0:     28 shell pairs
          la=1 lb=0:     28 shell pairs
          la=1 lb=1:     10 shell pairs
          la=2 lb=0:      7 shell pairs
          la=2 lb=1:      4 shell pairs
          la=2 lb=2:      1 shell pairs

Checking whether 4 symmetric matrices of dimension 24 fit in memory
:Max Core in MB      =   4096.00
 MB in use           =      3.24
 MB left             =   4092.76
 MB needed           =      0.01
 Data fit in memory  = YES
Calculating RI/J V-Matrix + Cholesky decomp.... done (  0.0 sec)
Calculating Nuclear repulsion               ... done (  0.0 sec) ENN=      8.000467349754 Eh

Diagonalization of the overlap matrix:
Smallest eigenvalue                        ... 5.544e-02
Time for diagonalization                   ...    0.000 sec
Threshold for overlap eigenvalues          ... 1.000e-07
Number of eigenvalues below threshold      ... 0
Time for construction of square roots      ...    0.000 sec
Total time needed                          ...    0.001 sec

-------------------
DFT GRID GENERATION
-------------------

General Integration Accuracy     IntAcc      ... 4.388
Radial Grid Type                 RadialGrid  ... OptM3 with GC (2021)
Angular Grid (max. ang.)         AngularGrid ... 4 (Lebedev-302)
Angular grid pruning method      GridPruning ... 4 (adaptive)
Weight generation scheme         WeightScheme... mBecke (2022)
Basis function cutoff            BFCut       ... 1.0000e-11
Integration weight cutoff        WCut        ... 1.0000e-14
Partially contracted basis set               ... off
Rotationally invariant grid construction     ... off
Angular grids for H and He will be reduced by one unit

Total number of grid points                  ...    12776
Total number of batches                      ...      201
Average number of points per batch           ...       63
Average number of grid points per atom       ...     4259

--------------------
COSX GRID GENERATION
--------------------

GRIDX 1
-------
General Integration Accuracy     IntAcc      ... 3.816
Radial Grid Type                 RadialGrid  ... OptM3 with GC (2021)
Angular Grid (max. ang.)         AngularGrid ... 1 (Lebedev-50)
Angular grid pruning method      GridPruning ... 4 (adaptive)
Weight generation scheme         WeightScheme... mBecke (2022)
Basis function cutoff            BFCut       ... 1.0000e-11
Integration weight cutoff        WCut        ... 1.0000e-14
Partially contracted basis set               ... on
Rotationally invariant grid construction     ... off
Angular grids for H and He will be reduced by one unit

Total number of grid points                  ...     1667
Total number of batches                      ...       14
Average number of points per batch           ...      119
Average number of grid points per atom       ...      556
UseSFitting                                  ... on

GRIDX 2
-------
General Integration Accuracy     IntAcc      ... 4.020
Radial Grid Type                 RadialGrid  ... OptM3 with GC (2021)
Angular Grid (max. ang.)         AngularGrid ... 2 (Lebedev-110)
Angular grid pruning method      GridPruning ... 4 (adaptive)
Weight generation scheme         WeightScheme... mBecke (2022)
Basis function cutoff            BFCut       ... 1.0000e-11
Integration weight cutoff        WCut        ... 1.0000e-14
Partially contracted basis set               ... on
Rotationally invariant grid construction     ... off
Angular grids for H and He will be reduced by one unit

Total number of grid points                  ...     3524
Total number of batches                      ...       28
Average number of points per batch           ...      125
Average number of grid points per atom       ...     1175
UseSFitting                                  ... on

GRIDX 3
-------
General Integration Accuracy     IntAcc      ... 4.338
Radial Grid Type                 RadialGrid  ... OptM3 with GC (2021)
Angular Grid (max. ang.)         AngularGrid ... 3 (Lebedev-194)
Angular grid pruning method      GridPruning ... 4 (adaptive)
Weight generation scheme         WeightScheme... mBecke (2022)
Basis function cutoff            BFCut       ... 1.0000e-11
Integration weight cutoff        WCut        ... 1.0000e-14
Partially contracted basis set               ... on
Rotationally invariant grid construction     ... off
Angular grids for H and He will be reduced by one unit

Total number of grid points                  ...     7808
Total number of batches                      ...       63
Average number of points per batch           ...      123
Average number of grid points per atom       ...     2603
UseSFitting                                  ... on
Grids setup in   0.1 sec
Initializing property integral containers    ... done (  0.0 sec)

SHARK setup successfully completed in   0.1 seconds

Maximum memory used throughout the entire STARTUP-calculation: 9.6 MB


           ************************************************************
           *        Program running with 6 parallel MPI-processes     *
           *              working on a common directory               *
           ************************************************************
-------------------------------------------------------------------------------
                                 ORCA GUESS
                   Start orbitals & Density for SCF / CASSCF
-------------------------------------------------------------------------------

------------
SCF SETTINGS
------------
Hamiltonian:
 Density Functional     Method          .... DFT(GTOs)
 Exchange Functional    Exchange        .... B88
   X-Alpha parameter    XAlpha          ....  0.666667
   Becke's b parameter  XBeta           ....  0.004200
 Correlation Functional Correlation     .... LYP
 LDA part of GGA corr.  LDAOpt          .... VWN-5
 Gradients option       PostSCFGGA      .... off
 Hybrid DFT is turned on
   Fraction HF Exchange ScalHFX         ....  0.200000
   Scaling of DF-GGA-X  ScalDFX         ....  0.720000
   Scaling of DF-GGA-C  ScalDFC         ....  0.810000
   Scaling of DF-LDA-C  ScalLDAC        ....  1.000000
   Perturbative correction              ....  0.000000
   NL short-range parameter             ....  4.800000
 RI-approximation to the Coulomb term is turned on
   Number of AuxJ basis functions       .... 71
   RIJ-COSX (HFX calculated with COS-X)).... on


General Settings:
 Integral files         IntName         .... water-scan
 Hartree-Fock type      HFTyp           .... RHF
 Total Charge           Charge          ....    0
 Multiplicity           Mult            ....    1
 Number of Electrons    NEL             ....   10
 Basis Dimension        Dim             ....   24
 Nuclear Repulsion      ENuc            ....      8.0004673498 Eh

Convergence Acceleration:
 AO-DIIS                CNVDIIS         .... on
   Start iteration      DIISMaxIt       ....    12
   Startup error        DIISStart       ....  0.200000
   # of expansion vecs  DIISMaxEq       ....     5
   Bias factor          DIISBfac        ....   1.050
   Max. coefficient     DIISMaxC        ....  10.000
 MO-DIIS                CNVKDIIS        .... off
 Trust-Rad. Augm. Hess. CNVTRAH         .... auto
   Auto Start mean grad. ratio tolernc. ....  1.125000
   Auto Start start iteration           ....    50
   Auto Start num. interpolation iter.  ....    10
   Max. Number of Micro iterations      ....    24
   Max. Number of Macro iterations      .... Maxiter - #DIIS iter
   Number of Davidson start vectors     ....     2
   Converg. threshold    (grad. norm)   ....   1.000e-05
   Grad. Scal. Fac. for Micro threshold ....   0.100
   Minimum threshold for Micro iter.    ....   1.000e-02
   NR start threshold (gradient norm)   ....   1.000e-04
   Initial trust radius                 ....   0.400
   Minimum AH scaling param. (alpha)    ....   1.000
   Maximum AH scaling param. (alpha)    .... 1000.000
   Quad. conv. algorithm                .... NR
   White noise on init. David. guess    .... on
   Maximum white noise                  ....   0.010
   Pseudo random numbers                .... off
   Inactive MOs                         .... canonical
   Orbital update algorithm             .... Taylor
   Preconditioner                       .... Diag
   Full preconditioner red. dimension   ....   250
 SOSCF                 CNVSOSCF           .... on
   Start iteration     SOSCFMaxIt         ....   150
   Startup grad/error  SOSCFStart         ....  0.003300
   Hessian update      SOSCFHessUp        .... L-BFGS
   Autom. constraints  SOSCFAutoConstrain .... off
 Level Shifting         CNVShift        .... on
   Level shift para.    LevelShift      ....    0.2500
   Turn off err/grad.   ShiftErr        ....    0.0010
 Zerner damping         CNVZerner       .... off
 Static damping         CNVDamp         .... on
   Fraction old density DampFac         ....    0.7000
   Max. Damping (<1)    DampMax         ....    0.9800
   Min. Damping (>=0)   DampMin         ....    0.0000
   Turn off err/grad.   DampErr         ....    0.1000

SCF Procedure:
 Maximum # iterations   MaxIter         ....   125
 SCF integral mode      SCFMode         .... Direct
   Integral package                     .... SHARK and LIBINT hybrid scheme
 Reset frequency        DirectResetFreq ....    20
 Integral Threshold     Thresh          ....  2.500e-11 Eh
 Primitive CutOff       TCut            ....  2.500e-12 Eh

Convergence Tolerance:
 Convergence Check Mode ConvCheckMode   .... Total+1el-Energy
 Convergence forced     ConvForced      .... 0
 Energy Change          TolE            ....  1.000e-08 Eh
 1-El. energy change                    ....  1.000e-05 Eh
 Orbital Gradient       TolG            ....  1.000e-05
 Orbital Rotation angle TolX            ....  1.000e-05
 DIIS Error             TolErr          ....  5.000e-07

------------------------------
INITIAL GUESS: MODEL POTENTIAL
------------------------------
Loading Hartree-Fock densities                     ... done
Calculating cut-offs                               ... done
Initializing the effective Hamiltonian             ... done
Setting up the integral package (SHARK)            ... done
Starting the Coulomb interaction                   ... done (   0.0 sec)
Making the grid                                    ... done (   0.0 sec)
Mapping shells                                     ... done
Starting the XC term evaluation                    ... done (   0.0 sec)
  promolecular density results
     # of electrons  =      9.998996146
     EX              =     -8.726818307
     EC              =     -0.330725504
     EX+EC           =     -9.057543811
Transforming the Hamiltonian                       ... done (   0.0 sec)
Diagonalizing the Hamiltonian                      ... done (   0.0 sec)
Back transforming the eigenvectors                 ... done (   0.0 sec)
Now organizing SCF variables                       ... done
                      ------------------
                      INITIAL GUESS DONE (   0.0 sec)
                      ------------------
             **** ENERGY FILE WAS UPDATED (water-scan.en.tmp) ****
Finished Guess after   0.3 sec
Maximum memory used throughout the entire GUESS-calculation: 5.4 MB


           ************************************************************
           *        Program running with 6 parallel MPI-processes     *
           *              working on a common directory               *
           ************************************************************

-------------------------------------------------------------------------------------------
                                      ORCA LEAN-SCF
                              memory conserving SCF solver
-------------------------------------------------------------------------------------------

----------------------------------------D-I-I-S--------------------------------------------
Iteration    Energy (Eh)           Delta-E    RMSDP     MaxDP     DIISErr   Damp  Time(sec)
-------------------------------------------------------------------------------------------
               ***  Starting incremental Fock matrix formation  ***
    1    -76.2608020940738527     0.00e+00  3.60e-02  9.15e-02  2.90e-01  0.700   0.0
    2    -76.3091682762720751    -4.84e-02  2.09e-02  5.19e-02  1.09e-01  0.700   0.0
                               ***Turning on AO-DIIS***
    3    -76.3232596499105682    -1.41e-02  5.99e-03  1.21e-02  1.58e-02  0.700   0.0
    4    -76.3324589837202723    -9.20e-03  7.56e-03  1.73e-02  7.63e-03  0.000   0.0
    5    -76.3545967975513094    -2.21e-02  2.61e-03  5.06e-03  8.58e-03  0.000   0.0
                              *** Initializing SOSCF ***
---------------------------------------S-O-S-C-F--------------------------------------
Iteration    Energy (Eh)           Delta-E    RMSDP     MaxDP     MaxGrad    Time(sec)
--------------------------------------------------------------------------------------
    6    -76.3547404865434061    -1.44e-04  8.48e-04  1.86e-03  2.07e-03     0.0
               *** Restarting incremental Fock matrix formation ***
    7    -76.3547258912610545     1.46e-05  5.99e-04  1.53e-03  4.97e-04     0.0
    8    -76.3547259162048704    -2.49e-08  2.01e-04  5.67e-04  5.69e-04     0.0
    9    -76.3547269901916366    -1.07e-06  7.52e-05  1.42e-04  8.21e-05     0.0
   10    -76.3547270149376942    -2.47e-08  1.52e-05  2.74e-05  1.73e-05     0.1
   11    -76.3547270171384014    -2.20e-09  1.19e-06  2.26e-06  2.40e-06     0.1
                 **** Energy Check signals convergence ****

               *****************************************************
               *                     SUCCESS                       *
               *           SCF CONVERGED AFTER  11 CYCLES          *
               *****************************************************

Recomputing exchange energy using gridx3       ... done (    0.025 sec)
Old exchange energy                            :     -1.764863479 Eh
New exchange energy                            :     -1.764913324 Eh
Exchange energy change after final integration :     -0.000049845 Eh
Total energy after final integration           :    -76.354776862 Eh
             **** ENERGY FILE WAS UPDATED (water-scan.en.tmp) ****

----------------
TOTAL SCF ENERGY
----------------

Total Energy       :        -76.35477686193646 Eh           -2077.71911 eV

Components:
Nuclear Repulsion  :          8.00046734975355 Eh             217.70378 eV
Electronic Energy  :        -84.35519436701648 Eh           -2295.42154 eV
One Electron Energy:       -120.94394457017194 Eh           -3291.05205 eV
Two Electron Energy:         36.58875020315546 Eh             995.63051 eV

Virial components:
Potential Energy   :       -151.96729831211366 Eh           -4135.24042 eV
Kinetic Energy     :         75.61252145017718 Eh            2057.52131 eV
Virial Ratio       :          2.00981656738227

DFT components:
N(Alpha)           :        4.999998214229 electrons
N(Beta)            :        4.999998214229 electrons
N(Total)           :        9.999996428458 electrons
E(X)               :       -7.040377268595 Eh       
E(C)               :       -0.397290533235 Eh       
E(XC)              :       -7.437667801830 Eh       

---------------
SCF CONVERGENCE
---------------

  Last Energy change         ...    2.2007e-09  Tolerance :   1.0000e-08
  Last MAX-Density change    ...    2.2632e-06  Tolerance :   1.0000e-07
  Last RMS-Density change    ...    1.1948e-06  Tolerance :   5.0000e-09
  Last DIIS Error            ...    2.0654e-03  Tolerance :   5.0000e-07
  Last Orbital Gradient      ...    2.4036e-06  Tolerance :   1.0000e-05
  Last Orbital Rotation      ...    1.7995e-06  Tolerance :   1.0000e-05


----------------
ORBITAL ENERGIES
----------------

  NO   OCC          E(Eh)            E(eV) 
   0   2.0000     -19.154707      -521.2261 
   1   2.0000      -0.949751       -25.8440 
   2   2.0000      -0.451192       -12.2776 
   3   2.0000      -0.377887       -10.2828 
   4   2.0000      -0.283042        -7.7020 
   5   0.0000       0.029532         0.8036 
   6   0.0000       0.096959         2.6384 
   7   0.0000       0.703848        19.1527 
   8   0.0000       0.741123        20.1670 
   9   0.0000       0.890564        24.2335 
  10   0.0000       0.954608        25.9762 
  11   0.0000       1.011737        27.5308 
  12   0.0000       1.348406        36.6920 
  13   0.0000       1.498063        40.7644 
  14   0.0000       1.559836        42.4453 
  15   0.0000       1.622888        44.1610 
*Only the first 10 virtual orbitals were printed.

                    ********************************
                    * MULLIKEN POPULATION ANALYSIS *
                    ********************************

-----------------------
MULLIKEN ATOMIC CHARGES
-----------------------
   0 O :   -0.589379
   1 H :    0.294684
   2 H :    0.294695
Sum of atomic charges:   -0.0000000

--------------------------------
MULLIKEN REDUCED ORBITAL CHARGES
--------------------------------
  0 O s       :     3.902273  s :     3.902273
      pz      :     1.550960  p :     4.670084
      px      :     1.477060
      py      :     1.642064
      dz2     :     0.000528  d :     0.017022
      dxz     :     0.006084
      dyz     :     0.001970
      dx2y2   :     0.004491
      dxy     :     0.003949

  1 H s       :     0.678317  s :     0.678317
      pz      :     0.008971  p :     0.026999
      px      :     0.012095
      py      :     0.005933

  2 H s       :     0.678310  s :     0.678310
      pz      :     0.009117  p :     0.026995
      px      :     0.006737
      py      :     0.011141



                     *******************************
                     * LOEWDIN POPULATION ANALYSIS *
                     *******************************

----------------------
LOEWDIN ATOMIC CHARGES
----------------------
   0 O :   -0.412051
   1 H :    0.206013
   2 H :    0.206038

-------------------------------
LOEWDIN REDUCED ORBITAL CHARGES
-------------------------------
  0 O s       :     3.680723  s :     3.680723
      pz      :     1.559177  p :     4.707627
      px      :     1.501609
      py      :     1.646841
      dz2     :     0.000393  d :     0.023700
      dxz     :     0.009088
      dyz     :     0.003825
      dx2y2   :     0.005682
      dxy     :     0.004712

  1 H s       :     0.720664  s :     0.720664
      pz      :     0.022951  p :     0.073323
      px      :     0.036519
      py      :     0.013854

  2 H s       :     0.720653  s :     0.720653
      pz      :     0.023440  p :     0.073309
      px      :     0.018585
      py      :     0.031284



                      *****************************
                      * MAYER POPULATION ANALYSIS *
                      *****************************

  NA   - Mulliken gross atomic population
  ZA   - Total nuclear charge
  QA   - Mulliken gross atomic charge
  VA   - Mayer's total valence
  BVA  - Mayer's bonded valence
  FA   - Mayer's free valence

  ATOM       NA         ZA         QA         VA         BVA        FA
  0 O      8.5894     8.0000    -0.5894     1.8069     1.8069    -0.0000
  1 H      0.7053     1.0000     0.2947     0.9009     0.9009    -0.0000
  2 H      0.7053     1.0000     0.2947     0.9009     0.9009    -0.0000

  Mayer bond orders larger than 0.100000
B(  0-O ,  1-H ) :   0.9035 B(  0-O ,  2-H ) :   0.9035 

-------
TIMINGS
-------

Total SCF time: 0 days 0 hours 0 min 0 sec 

Total time                  ....       0.820 sec
Sum of individual times     ....       0.767 sec  ( 93.4%)

SCF preparation             ....       0.292 sec  ( 35.6%)
Fock matrix formation       ....       0.430 sec  ( 52.4%)
  Startup                   ....       0.002 sec  (  0.4% of F)
  Split-RI-J                ....       0.028 sec  (  6.5% of F)
  Chain of spheres X        ....       0.286 sec  ( 66.5% of F)
  XC integration            ....       0.121 sec  ( 28.2% of F)
    XC Preparation          ....       0.000 sec  (  0.0% of XC)
    Basis function eval.    ....       0.023 sec  ( 18.8% of XC)
    Density eval.           ....       0.009 sec  (  7.1% of XC)
    XC-Functional eval.     ....       0.013 sec  ( 10.6% of XC)
    XC-Potential eval.      ....       0.005 sec  (  4.4% of XC)
Diagonalization             ....       0.000 sec  (  0.0%)
Density matrix formation    ....       0.006 sec  (  0.8%)
Total Energy calculation    ....       0.004 sec  (  0.5%)
Population analysis         ....       0.003 sec  (  0.4%)
Orbital Transformation      ....       0.003 sec  (  0.3%)
Orbital Orthonormalization  ....       0.000 sec  (  0.0%)
DIIS solution               ....       0.015 sec  (  1.9%)
SOSCF solution              ....       0.012 sec  (  1.5%)
Finished LeanSCF after   0.8 sec

Maximum memory used throughout the entire LEANSCF-calculation: 4.6 MB

-------------------------   --------------------
FINAL SINGLE POINT ENERGY       -76.354776861936
-------------------------   --------------------



           ************************************************************
           *        Program running with 6 parallel MPI-processes     *
           *              working on a common directory               *
           ************************************************************
------------------------------------------------------------------------------
                         ORCA SCF GRADIENT CALCULATION
------------------------------------------------------------------------------

Nuc. rep. gradient        (SHARK) ... done (  0.0 sec)
HCore & Overlap gradient  (SHARK) ... done (  0.0 sec)
Split-RIJ-J gradient      (SHARK) ... done (  0.1 sec)
done (  0.1 sec)
XC gradient                       ... done (  0.0 sec)

------------------
CARTESIAN GRADIENT
------------------

   1   O   :   -0.110705821   -0.050983490    0.001086327
   2   H   :    0.070540425   -0.006613468    0.042005895
   3   H   :    0.040165396    0.057596958   -0.043092222

Difference to translation invariance:
           :   -0.0000000001   -0.0000000000    0.0000000000

Difference to rotation invariance:
           :    0.0000199661   -0.0000184578   -0.0000089761

Norm of the Cartesian gradient     ...    0.1686062523
RMS gradient                       ...    0.0562020841
MAX gradient                       ...    0.1107058214

-------
TIMINGS
-------

Total SCF gradient time     ....        0.184 sec

Densities                   ....       0.000 sec  (  0.0%)
One electron gradient       ....       0.004 sec  (  2.2%)
RI-J Coulomb gradient       ....       0.063 sec  ( 34.2%)
COSX gradient               ....       0.096 sec  ( 52.3%)
XC gradient                 ....       0.021 sec  ( 11.2%)

Maximum memory used throughout the entire SCFGRAD-calculation: 5.8 MB
------------------------------------------------------------------------------
                         ORCA GEOMETRY RELAXATION STEP
------------------------------------------------------------------------------

Reading the OPT-File                    .... done
Getting information on internals        .... done
Copying old internal coords+grads       .... done
Making the new internal coordinates     .... (2022 redundants) done
Validating the new internal coordinates .... (2022 redundants) done
Calculating the B-matrix                .... done
Calculating the G,G- and P matrices     .... done
Transforming gradient to internals      .... done
Projecting the internal gradient        .... done
Number of atoms                         ....   3
Number of internal coordinates          ....   3
Current Energy                          ....   -76.354776862 Eh
Current gradient norm                   ....     0.168606252 Eh/bohr
Maximum allowed component of the step   ....  0.300
Current trust radius                    ....  0.300
Evaluating the initial hessian          ....  (Almloef) done
Projecting the Hessian                  .... done
Forming the augmented Hessian           .... done
Diagonalizing the augmented Hessian     .... done
Last element of RFO vector              ....  0.948014041
Lowest eigenvalues of augmented Hessian:
 -0.038973595  0.306903547  0.345877174
Length of the computed step             ....  0.335679100
Warning: the length of the step is outside the trust region - taking restricted step instead
The input lambda is                     ....     0.305873
   iter:   5  x=    0.299090  g=190751.477690 f(x)=   496.701730
   iter:  10  x=    0.247937  g=  439.190386 f(x)=     8.572550
   iter:  15  x=   -0.023187  g=    1.560687 f(x)=     0.111723
   iter:  20  x=   -0.080109  g=    0.465101 f(x)=     0.000000
The output lambda is                    ....    -0.080109 (21 iterations)
The final length of the internal step   ....  0.300000000
Converting the step to Cartesian space:
 Initial RMS(Int)=    0.1732050808
Transforming coordinates:
 Iter   0:  RMS(Cart)=    0.0830613521 RMS(Int)=    0.1732050807
Imposing constraints:
 Iter   0:  RMS(Cart)=    0.0000000000 RMS(Int)=    0.0000000000
CONVERGED
done
Storing new coordinates                 .... done

                                .--------------------.
          ----------------------|Geometry convergence|-------------------------
          Item                value                   Tolerance       Converged
          ---------------------------------------------------------------------
          RMS gradient        0.0670325197            0.0001000000      NO
          MAX gradient        0.0821047928            0.0003000000      NO
          RMS step            0.1732050808            0.0020000000      NO
          MAX step            0.2121670584            0.0040000000      NO
          -------------------------------------------------------------------------
          ........................................................
          Max(Bonds)      0.1123      Max(Angles)    0.00
          Max(Dihed)        0.00      Max(Improp)    0.00
          ---------------------------------------------------------------------

The optimization has not yet converged - more geometry cycles are needed


    ---------------------------------------------------------------------------
                         Redundant Internal Coordinates
                            (Angstroem and degrees)

        Definition                    Value    dE/dq     Step     New-Value
    ----------------------------------------------------------------------------
     1. B(H   1,O   0)                1.1035  0.082091 -0.1122    0.9912   
     2. B(H   2,O   0)                1.1035  0.082105 -0.1123    0.9913   
     3. A(H   1,O   0,H   2)           94.00 -0.014122    0.00     94.00 C 
    ----------------------------------------------------------------------------

Geometry step timings:
Preparation and reading OPT file:      0.000 s ( 5.914 %)
Internal coordinates            :      0.000 s ( 4.480 %)
B/P matrices and projection     :      0.000 s (21.505 %)
Hessian update/contruction      :      0.000 s (20.251 %)
Making the step                 :      0.000 s (13.441 %)
Converting the step to Cartesian:      0.000 s ( 6.452 %)
Storing new data                :      0.000 s ( 4.839 %)
Checking convergence            :      0.000 s ( 7.885 %)
Final printing                  :      0.000 s (15.233 %)
Total time                      :      0.001 s

Time for energy+gradient        :      5.408 s
Time for complete geometry iter :      6.595 s

         *************************************************************
         *                GEOMETRY OPTIMIZATION CYCLE   2            *
         *************************************************************
---------------------------------
CARTESIAN COORDINATES (ANGSTROEM)
---------------------------------
  O     -4.379779    2.046367    0.002031
  H     -3.566971    1.909242    0.552589
  H     -3.964497    2.748954   -0.560569

----------------------------
CARTESIAN COORDINATES (A.U.)
----------------------------
  NO LB      ZA    FRAG     MASS         X           Y           Z
   0 O     8.0000    0    15.999   -8.276583    3.867073    0.003839
   1 H     1.0000    0     1.008   -6.740599    3.607944    1.044242
   2 H     1.0000    0     1.008   -7.491813    5.194771   -1.059321

--------------------------------
INTERNAL COORDINATES (ANGSTROEM)
--------------------------------
 O      0   0   0     0.000000000000     0.00000000     0.00000000
 H      1   0   0     0.991248291732     0.00000000     0.00000000
 H      1   2   0     0.991265554719    94.00000018     0.00000000

---------------------------
INTERNAL COORDINATES (A.U.)
---------------------------
 O      0   0   0     0.000000000000     0.00000000     0.00000000
 H      1   0   0     1.873187802091     0.00000000     0.00000000
 H      1   2   0     1.873220424408    94.00000018     0.00000000



           ************************************************************
           *        Program running with 6 parallel MPI-processes     *
           *              working on a common directory               *
           ************************************************************
------------------------------------------------------------------------------
                   ___                                                        
                  /   \      - P O W E R E D   B Y -                         
                 /     \                                                     
                 |  |  |   _    _      __       _____    __    __             
                 |  |  |  | |  | |    /  \     |  _  \  |  |  /  |          
                  \  \/   | |  | |   /    \    | | | |  |  | /  /          
                 / \  \   | |__| |  /  /\  \   | |_| |  |  |/  /          
                |  |  |   |  __  | /  /__\  \  |    /   |      \           
                |  |  |   | |  | | |   __   |  |    \   |  |\   \          
                \     /   | |  | | |  |  |  |  | |\  \  |  | \   \       
                 \___/    |_|  |_| |__|  |__|  |_| \__\ |__|  \__/        
                                                                              
                      - O R C A' S   B I G   F R I E N D -                    
                                      &                                       
                       - I N T E G R A L  F E E D E R -                       
                                                                              
 v1 FN, 2020, v2 2021, v3 2022-2024                                           
------------------------------------------------------------------------------


----------------------
SHARK INTEGRAL PACKAGE
----------------------

Number of atoms                             ...      3
Number of basis functions                   ...     24
Number of shells                            ...     12
Maximum angular momentum                    ...      2
Integral batch strategy                     ... SHARK/LIBINT Hybrid
RI-J (if used) integral strategy            ... SPLIT-RIJ (Revised 2003 algorithm where possible)
Printlevel                                  ...      1
Contraction scheme used                     ... SEGMENTED contraction
Prescreening option                         ... SCHWARTZ
   Thresh                                   ... 2.500e-11
   Tcut                                     ... 2.500e-12
   Tpresel                                  ... 2.500e-12 
Coulomb Range Separation                    ... NOT USED
Exchange Range Separation                   ... NOT USED
Multipole approximations                    ... NOT USED
Finite Nucleus Model                        ... NOT USED
CABS basis                                  ... NOT available
Auxiliary Coulomb fitting basis             ... AVAILABLE
   # of basis functions in Aux-J            ...     71
   # of shells in Aux-J                     ...     25
   Maximum angular momentum in Aux-J        ...      4
Auxiliary J/K fitting basis                 ... NOT available
Auxiliary Correlation fitting basis         ... NOT available
Auxiliary 'external' fitting basis          ... NOT available

Checking pre-screening integrals            ... done (  0.0 sec) Dimension = 12
   => SHARK Basis and OBASIS are compatible. Storing Pre-screening
Shell pair information
Shell pair cut-off parameter TPreSel        ...   2.5e-12
Total number of shell pairs                 ...        78
Shell pairs after pre-screening             ...        78
Total number of primitive shell pairs       ...       352
Primitive shell pairs kept                  ...       337
          la=0 lb=0:     28 shell pairs
          la=1 lb=0:     28 shell pairs
          la=1 lb=1:     10 shell pairs
          la=2 lb=0:      7 shell pairs
          la=2 lb=1:      4 shell pairs
          la=2 lb=2:      1 shell pairs

Checking whether 4 symmetric matrices of dimension 24 fit in memory
:Max Core in MB      =   4096.00
 MB in use           =      3.24
 MB left             =   4092.76
 MB needed           =      0.01
 Data fit in memory  = YES
Calculating RI/J V-Matrix + Cholesky decomp.... done (  0.0 sec)
Calculating Nuclear repulsion               ... done (  0.0 sec) ENN=      8.906484676571 Eh

Diagonalization of the overlap matrix:
Smallest eigenvalue                        ... 4.342e-02
Time for diagonalization                   ...    0.000 sec
Threshold for overlap eigenvalues          ... 1.000e-07
Number of eigenvalues below threshold      ... 0
Time for construction of square roots      ...    0.000 sec
Total time needed                          ...    0.001 sec

-------------------
DFT GRID GENERATION
-------------------

General Integration Accuracy     IntAcc      ... 4.388
Radial Grid Type                 RadialGrid  ... OptM3 with GC (2021)
Angular Grid (max. ang.)         AngularGrid ... 4 (Lebedev-302)
Angular grid pruning method      GridPruning ... 4 (adaptive)
Weight generation scheme         WeightScheme... mBecke (2022)
Basis function cutoff            BFCut       ... 1.0000e-11
Integration weight cutoff        WCut        ... 1.0000e-14
Partially contracted basis set               ... off
Rotationally invariant grid construction     ... off
Angular grids for H and He will be reduced by one unit

Total number of grid points                  ...    12770
Total number of batches                      ...      202
Average number of points per batch           ...       63
Average number of grid points per atom       ...     4257

--------------------
COSX GRID GENERATION
--------------------

GRIDX 1
-------
General Integration Accuracy     IntAcc      ... 3.816
Radial Grid Type                 RadialGrid  ... OptM3 with GC (2021)
Angular Grid (max. ang.)         AngularGrid ... 1 (Lebedev-50)
Angular grid pruning method      GridPruning ... 4 (adaptive)
Weight generation scheme         WeightScheme... mBecke (2022)
Basis function cutoff            BFCut       ... 1.0000e-11
Integration weight cutoff        WCut        ... 1.0000e-14
Partially contracted basis set               ... on
Rotationally invariant grid construction     ... off
Angular grids for H and He will be reduced by one unit

Total number of grid points                  ...     1664
Total number of batches                      ...       14
Average number of points per batch           ...      118
Average number of grid points per atom       ...      555
UseSFitting                                  ... on

GRIDX 2
-------
General Integration Accuracy     IntAcc      ... 4.020
Radial Grid Type                 RadialGrid  ... OptM3 with GC (2021)
Angular Grid (max. ang.)         AngularGrid ... 2 (Lebedev-110)
Angular grid pruning method      GridPruning ... 4 (adaptive)
Weight generation scheme         WeightScheme... mBecke (2022)
Basis function cutoff            BFCut       ... 1.0000e-11
Integration weight cutoff        WCut        ... 1.0000e-14
Partially contracted basis set               ... on
Rotationally invariant grid construction     ... off
Angular grids for H and He will be reduced by one unit

Total number of grid points                  ...     3521
Total number of batches                      ...       28
Average number of points per batch           ...      125
Average number of grid points per atom       ...     1174
UseSFitting                                  ... on

GRIDX 3
-------
General Integration Accuracy     IntAcc      ... 4.338
Radial Grid Type                 RadialGrid  ... OptM3 with GC (2021)
Angular Grid (max. ang.)         AngularGrid ... 3 (Lebedev-194)
Angular grid pruning method      GridPruning ... 4 (adaptive)
Weight generation scheme         WeightScheme... mBecke (2022)
Basis function cutoff            BFCut       ... 1.0000e-11
Integration weight cutoff        WCut        ... 1.0000e-14
Partially contracted basis set               ... on
Rotationally invariant grid construction     ... off
Angular grids for H and He will be reduced by one unit

Total number of grid points                  ...     7804
Total number of batches                      ...       63
Average number of points per batch           ...      123
Average number of grid points per atom       ...     2601
UseSFitting                                  ... on
Grids setup in   0.1 sec
Initializing property integral containers    ... done (  0.0 sec)

SHARK setup successfully completed in   0.1 seconds

Maximum memory used throughout the entire STARTUP-calculation: 9.6 MB


           ************************************************************
           *        Program running with 6 parallel MPI-processes     *
           *              working on a common directory               *
           ************************************************************
Occupation numbers will be reassigned to an Aufbau configuration
             **** ENERGY FILE WAS UPDATED (water-scan.en.tmp) ****
Finished Guess after   0.3 sec
Maximum memory used throughout the entire GUESS-calculation: 5.4 MB


           ************************************************************
           *        Program running with 6 parallel MPI-processes     *
           *              working on a common directory               *
           ************************************************************
----------------------------------------D-I-I-S--------------------------------------------
Iteration    Energy (Eh)           Delta-E    RMSDP     MaxDP     DIISErr   Damp  Time(sec)
-------------------------------------------------------------------------------------------
               ***  Starting incremental Fock matrix formation  ***
    1    -76.3720153338524597     0.00e+00  5.66e-03  1.24e-02  4.04e-02  0.700   0.1
    2    -76.3738408078872055    -1.83e-03  4.75e-03  9.90e-03  2.99e-02  0.700   0.0
                               ***Turning on AO-DIIS***
    3    -76.3750444015260967    -1.20e-03  3.30e-03  5.91e-03  2.10e-02  0.700   0.1
    4    -76.3758694600567623    -8.25e-04  8.31e-03  1.63e-02  1.48e-02  0.000   0.1
                              *** Initializing SOSCF ***
---------------------------------------S-O-S-C-F--------------------------------------
Iteration    Energy (Eh)           Delta-E    RMSDP     MaxDP     MaxGrad    Time(sec)
--------------------------------------------------------------------------------------
    5    -76.3778666184070545    -2.00e-03  7.77e-04  2.42e-03  2.62e-03     0.0
               *** Restarting incremental Fock matrix formation ***
    6    -76.3778755116399424    -8.89e-06  3.46e-04  7.82e-04  3.85e-04     0.0
    7    -76.3778757971467712    -2.86e-07  2.13e-04  6.32e-04  4.22e-04     0.0
    8    -76.3778763561275440    -5.59e-07  6.04e-05  1.52e-04  5.41e-05     0.0
    9    -76.3778763709267281    -1.48e-08  5.59e-06  1.04e-05  1.03e-05     0.1
   10    -76.3778763716631772    -7.36e-10  1.10e-06  3.00e-06  1.78e-06     0.0
                 **** Energy Check signals convergence ****

               *****************************************************
               *                     SUCCESS                       *
               *           SCF CONVERGED AFTER  10 CYCLES          *
               *****************************************************

Recomputing exchange energy using gridx3       ... done (    0.025 sec)
Old exchange energy                            :     -1.786053869 Eh
New exchange energy                            :     -1.786070198 Eh
Exchange energy change after final integration :     -0.000016329 Eh
Total energy after final integration           :    -76.377892701 Eh
             **** ENERGY FILE WAS UPDATED (water-scan.en.tmp) ****

----------------
TOTAL SCF ENERGY
----------------

Total Energy       :        -76.37789270120817 Eh           -2078.34812 eV

Components:
Nuclear Repulsion  :          8.90648467657102 Eh             242.35777 eV
Electronic Energy  :        -85.28436104847538 Eh           -2320.70545 eV
One Electron Energy:       -122.61545817179640 Eh           -3336.53624 eV
Two Electron Energy:         37.33109712332104 Eh            1015.83080 eV

Virial components:
Potential Energy   :       -152.26647226802373 Eh           -4143.38136 eV
Kinetic Energy     :         75.88857956681558 Eh            2065.03323 eV
Virial Ratio       :          2.00644778354247

DFT components:
N(Alpha)           :        4.999998373471 electrons
N(Beta)            :        4.999998373471 electrons
N(Total)           :        9.999996746942 electrons
E(X)               :       -7.109116167206 Eh       
E(C)               :       -0.401242656203 Eh       
E(XC)              :       -7.510358823409 Eh       

---------------
SCF CONVERGENCE
---------------

  Last Energy change         ...    7.3645e-10  Tolerance :   1.0000e-08
  Last MAX-Density change    ...    3.0006e-06  Tolerance :   1.0000e-07
  Last RMS-Density change    ...    1.1038e-06  Tolerance :   5.0000e-09
  Last DIIS Error            ...    2.6210e-03  Tolerance :   5.0000e-07
  Last Orbital Gradient      ...    1.7783e-06  Tolerance :   1.0000e-05
  Last Orbital Rotation      ...    2.0898e-06  Tolerance :   1.0000e-05


Total SCF time: 0 days 0 hours 0 min 0 sec 
Finished LeanSCF after   0.9 sec

Maximum memory used throughout the entire LEANSCF-calculation: 4.6 MB

-------------------------   --------------------
FINAL SINGLE POINT ENERGY       -76.377892701208
-------------------------   --------------------



           ************************************************************
           *        Program running with 6 parallel MPI-processes     *
           *              working on a common directory               *
           ************************************************************
------------------------------------------------------------------------------
                         ORCA SCF GRADIENT CALCULATION
------------------------------------------------------------------------------

Nuc. rep. gradient        (SHARK) ... done (  0.0 sec)
HCore & Overlap gradient  (SHARK) ... done (  0.0 sec)
Split-RIJ-J gradient      (SHARK) ... done (  0.1 sec)
done (  0.1 sec)
XC gradient                       ... done (  0.0 sec)

------------------
CARTESIAN GRADIENT
------------------

   1   O   :   -0.041673500   -0.019185382    0.000412617
   2   H   :    0.021676091    0.007793695    0.002160943
   3   H   :    0.019997409    0.011391688   -0.002573559

Difference to translation invariance:
           :   -0.0000000001   -0.0000000000   -0.0000000000

Difference to rotation invariance:
           :    0.0000257293   -0.0000080890   -0.0000227819

Norm of the Cartesian gradient     ...    0.0563603069
RMS gradient                       ...    0.0187867690
MAX gradient                       ...    0.0416735004

-------
TIMINGS
-------

Total SCF gradient time     ....        0.187 sec

Densities                   ....       0.000 sec  (  0.0%)
One electron gradient       ....       0.004 sec  (  2.1%)
RI-J Coulomb gradient       ....       0.066 sec  ( 35.0%)
COSX gradient               ....       0.096 sec  ( 51.5%)
XC gradient                 ....       0.021 sec  ( 11.3%)

Maximum memory used throughout the entire SCFGRAD-calculation: 5.8 MB
------------------------------------------------------------------------------
                         ORCA GEOMETRY RELAXATION STEP
------------------------------------------------------------------------------

Reading the OPT-File                    .... done
Getting information on internals        .... done
Copying old internal coords+grads       .... done
Making the new internal coordinates     .... (2022 redundants) done
Validating the new internal coordinates .... (2022 redundants) done
Calculating the B-matrix                .... done
Calculating the G,G- and P matrices     .... done
Transforming gradient to internals      .... done
Projecting the internal gradient        .... done
Number of atoms                         ....   3
Number of internal coordinates          ....   3
Current Energy                          ....   -76.377892701 Eh
Current gradient norm                   ....     0.056360307 Eh/bohr
Maximum allowed component of the step   ....  0.300
Current trust radius                    ....  0.300
Updating the Hessian (BFGS)             .... done
Forming the augmented Hessian           .... done
Diagonalizing the augmented Hessian     .... done
Last element of RFO vector              ....  0.996565303
Lowest eigenvalues of augmented Hessian:
 -0.002104038  0.304713928  0.306904231
Length of the computed step             ....  0.083096012
The final length of the internal step   ....  0.083096012
Converting the step to Cartesian space:
 Initial RMS(Int)=    0.0479755052
Transforming coordinates:
 Iter   0:  RMS(Cart)=    0.0230068901 RMS(Int)=    0.0479755052
Imposing constraints:
 Iter   0:  RMS(Cart)=    0.0000000000 RMS(Int)=    0.0000000000
CONVERGED
done
Storing new coordinates                 .... done
The predicted energy change is          ....    -0.001059283
Previously predicted energy change      ....    -0.021020459
Actually observed energy change         ....    -0.023115839
Ratio of predicted to observed change   ....     1.099682899
New trust radius                        ....     0.450000000

                                .--------------------.
          ----------------------|Geometry convergence|-------------------------
          Item                value                   Tolerance       Converged
          ---------------------------------------------------------------------
          Energy change      -0.0231158393            0.0000050000      NO
          RMS gradient        0.0146188355            0.0001000000      NO
          MAX gradient        0.0179089126            0.0003000000      NO
          RMS step            0.0479755052            0.0020000000      NO
          MAX step            0.0587799420            0.0040000000      NO
          -------------------------------------------------------------------------
          ........................................................
          Max(Bonds)      0.0311      Max(Angles)    0.00
          Max(Dihed)        0.00      Max(Improp)    0.00
          ---------------------------------------------------------------------

The optimization has not yet converged - more geometry cycles are needed


    ---------------------------------------------------------------------------
                         Redundant Internal Coordinates
                            (Angstroem and degrees)

        Definition                    Value    dE/dq     Step     New-Value
    ----------------------------------------------------------------------------
     1. B(H   1,O   0)                0.9912  0.017900 -0.0311    0.9602   
     2. B(H   2,O   0)                0.9913  0.017909 -0.0311    0.9602   
     3. A(H   1,O   0,H   2)           94.00 -0.027480   -0.00     94.00 C 
    ----------------------------------------------------------------------------

Geometry step timings:
Preparation and reading OPT file:      0.000 s ( 1.876 %)
Internal coordinates            :      0.000 s ( 1.678 %)
B/P matrices and projection     :      0.000 s ( 8.490 %)
Hessian update/contruction      :      0.000 s (11.550 %)
Making the step                 :      0.001 s (63.870 %)
Converting the step to Cartesian:      0.000 s ( 2.369 %)
Storing new data                :      0.000 s ( 1.777 %)
Checking convergence            :      0.000 s ( 3.751 %)
Final printing                  :      0.000 s ( 4.640 %)
Total time                      :      0.001 s

Time for energy+gradient        :      5.693 s
Time for complete geometry iter :      6.876 s

         *************************************************************
         *                GEOMETRY OPTIMIZATION CYCLE   3            *
         *************************************************************
---------------------------------
CARTESIAN COORDINATES (ANGSTROEM)
---------------------------------
  O     -4.366940    2.052284    0.001899
  H     -3.579622    1.919455    0.535197
  H     -3.964685    2.732824   -0.543044

----------------------------
CARTESIAN COORDINATES (A.U.)
----------------------------
  NO LB      ZA    FRAG     MASS         X           Y           Z
   0 O     8.0000    0    15.999   -8.252321    3.878255    0.003589
   1 H     1.0000    0     1.008   -6.764505    3.627243    1.011375
   2 H     1.0000    0     1.008   -7.492168    5.164290   -1.026205

--------------------------------
INTERNAL COORDINATES (ANGSTROEM)
--------------------------------
 O      0   0   0     0.000000000000     0.00000000     0.00000000
 H      1   0   0     0.960166773389     0.00000000     0.00000000
 H      1   2   0     0.960160549120    94.00000018     0.00000000

---------------------------
INTERNAL COORDINATES (A.U.)
---------------------------
 O      0   0   0     0.000000000000     0.00000000     0.00000000
 H      1   0   0     1.814452244596     0.00000000     0.00000000
 H      1   2   0     1.814440482432    94.00000018     0.00000000



           ************************************************************
           *        Program running with 6 parallel MPI-processes     *
           *              working on a common directory               *
           ************************************************************
------------------------------------------------------------------------------
                   ___                                                        
                  /   \      - P O W E R E D   B Y -                         
                 /     \                                                     
                 |  |  |   _    _      __       _____    __    __             
                 |  |  |  | |  | |    /  \     |  _  \  |  |  /  |          
                  \  \/   | |  | |   /    \    | | | |  |  | /  /          
                 / \  \   | |__| |  /  /\  \   | |_| |  |  |/  /          
                |  |  |   |  __  | /  /__\  \  |    /   |      \           
                |  |  |   | |  | | |   __   |  |    \   |  |\   \          
                \     /   | |  | | |  |  |  |  | |\  \  |  | \   \       
                 \___/    |_|  |_| |__|  |__|  |_| \__\ |__|  \__/        
                                                                              
                      - O R C A' S   B I G   F R I E N D -                    
                                      &                                       
                       - I N T E G R A L  F E E D E R -                       
                                                                              
 v1 FN, 2020, v2 2021, v3 2022-2024                                           
------------------------------------------------------------------------------


----------------------
SHARK INTEGRAL PACKAGE
----------------------

Number of atoms                             ...      3
Number of basis functions                   ...     24
Number of shells                            ...     12
Maximum angular momentum                    ...      2
Integral batch strategy                     ... SHARK/LIBINT Hybrid
RI-J (if used) integral strategy            ... SPLIT-RIJ (Revised 2003 algorithm where possible)
Printlevel                                  ...      1
Contraction scheme used                     ... SEGMENTED contraction
Prescreening option                         ... SCHWARTZ
   Thresh                                   ... 2.500e-11
   Tcut                                     ... 2.500e-12
   Tpresel                                  ... 2.500e-12 
Coulomb Range Separation                    ... NOT USED
Exchange Range Separation                   ... NOT USED
Multipole approximations                    ... NOT USED
Finite Nucleus Model                        ... NOT USED
CABS basis                                  ... NOT available
Auxiliary Coulomb fitting basis             ... AVAILABLE
   # of basis functions in Aux-J            ...     71
   # of shells in Aux-J                     ...     25
   Maximum angular momentum in Aux-J        ...      4
Auxiliary J/K fitting basis                 ... NOT available
Auxiliary Correlation fitting basis         ... NOT available
Auxiliary 'external' fitting basis          ... NOT available

Checking pre-screening integrals            ... done (  0.0 sec) Dimension = 12
   => SHARK Basis and OBASIS are compatible. Storing Pre-screening
Shell pair information
Shell pair cut-off parameter TPreSel        ...   2.5e-12
Total number of shell pairs                 ...        78
Shell pairs after pre-screening             ...        78
Total number of primitive shell pairs       ...       352
Primitive shell pairs kept                  ...       339
          la=0 lb=0:     28 shell pairs
          la=1 lb=0:     28 shell pairs
          la=1 lb=1:     10 shell pairs
          la=2 lb=0:      7 shell pairs
          la=2 lb=1:      4 shell pairs
          la=2 lb=2:      1 shell pairs

Checking whether 4 symmetric matrices of dimension 24 fit in memory
:Max Core in MB      =   4096.00
 MB in use           =      3.24
 MB left             =   4092.76
 MB needed           =      0.01
 Data fit in memory  = YES
Calculating RI/J V-Matrix + Cholesky decomp.... done (  0.0 sec)
Calculating Nuclear repulsion               ... done (  0.0 sec) ENN=      9.194905986313 Eh

Diagonalization of the overlap matrix:
Smallest eigenvalue                        ... 4.062e-02
Time for diagonalization                   ...    0.000 sec
Threshold for overlap eigenvalues          ... 1.000e-07
Number of eigenvalues below threshold      ... 0
Time for construction of square roots      ...    0.000 sec
Total time needed                          ...    0.001 sec

-------------------
DFT GRID GENERATION
-------------------

General Integration Accuracy     IntAcc      ... 4.388
Radial Grid Type                 RadialGrid  ... OptM3 with GC (2021)
Angular Grid (max. ang.)         AngularGrid ... 4 (Lebedev-302)
Angular grid pruning method      GridPruning ... 4 (adaptive)
Weight generation scheme         WeightScheme... mBecke (2022)
Basis function cutoff            BFCut       ... 1.0000e-11
Integration weight cutoff        WCut        ... 1.0000e-14
Partially contracted basis set               ... off
Rotationally invariant grid construction     ... off
Angular grids for H and He will be reduced by one unit

Total number of grid points                  ...    12768
Total number of batches                      ...      201
Average number of points per batch           ...       63
Average number of grid points per atom       ...     4256

--------------------
COSX GRID GENERATION
--------------------

GRIDX 1
-------
General Integration Accuracy     IntAcc      ... 3.816
Radial Grid Type                 RadialGrid  ... OptM3 with GC (2021)
Angular Grid (max. ang.)         AngularGrid ... 1 (Lebedev-50)
Angular grid pruning method      GridPruning ... 4 (adaptive)
Weight generation scheme         WeightScheme... mBecke (2022)
Basis function cutoff            BFCut       ... 1.0000e-11
Integration weight cutoff        WCut        ... 1.0000e-14
Partially contracted basis set               ... on
Rotationally invariant grid construction     ... off
[...]
Occupation numbers will be reassigned to an Aufbau configuration
MOs were renormalized
MOs were reorthogonalized (Cholesky)
                      ------------------
                      INITIAL GUESS DONE (   0.0 sec)
                      ------------------
             **** ENERGY FILE WAS UPDATED (water-scan.en.tmp) ****
Finished Guess after   0.3 sec
Maximum memory used throughout the entire GUESS-calculation: 5.4 MB


           ************************************************************
           *        Program running with 6 parallel MPI-processes     *
           *              working on a common directory               *
           ************************************************************

-------------------------------------------------------------------------------------------
                                      ORCA LEAN-SCF
                              memory conserving SCF solver
-------------------------------------------------------------------------------------------

----------------------------------------D-I-I-S--------------------------------------------
Iteration    Energy (Eh)           Delta-E    RMSDP     MaxDP     DIISErr   Damp  Time(sec)
-------------------------------------------------------------------------------------------
               ***  Starting incremental Fock matrix formation  ***
                              *** Initializing SOSCF ***
---------------------------------------S-O-S-C-F--------------------------------------
Iteration    Energy (Eh)           Delta-E    RMSDP     MaxDP     MaxGrad    Time(sec)
--------------------------------------------------------------------------------------
    1    -76.3787907467318234     0.00e+00  3.82e-06  8.48e-06  1.37e-06     0.1
               *** Restarting incremental Fock matrix formation ***
    2    -76.3787907463169518     4.15e-10  2.28e-06  5.87e-06  3.48e-06     0.1
    3    -76.3787907463931504    -7.62e-11  1.36e-06  3.48e-06  3.81e-06     0.1
                 **** Energy Check signals convergence ****

               *****************************************************
               *                     SUCCESS                       *
               *           SCF CONVERGED AFTER   3 CYCLES          *
               *****************************************************

Recomputing exchange energy using gridx3       ... done (    0.037 sec)
Old exchange energy                            :     -1.793203562 Eh
New exchange energy                            :     -1.793222270 Eh
Exchange energy change after final integration :     -0.000018708 Eh
Total energy after final integration           :    -76.378809454 Eh
             **** ENERGY FILE WAS UPDATED (water-scan.en.tmp) ****

----------------
TOTAL SCF ENERGY
----------------

Total Energy       :        -76.37880945389668 Eh           -2078.37307 eV

Components:
Nuclear Repulsion  :          9.15113792346540 Eh             249.01512 eV
Electronic Energy  :        -85.52992866984036 Eh           -2327.38768 eV
One Electron Energy:       -123.12716261253154 Eh           -3350.46043 eV
Two Electron Energy:         37.59723394269118 Eh            1023.07275 eV

Virial components:
Potential Energy   :       -152.33238777448662 Eh           -4145.17501 eV
Kinetic Energy     :         75.95357832058993 Eh            2066.80194 eV
Virial Ratio       :          2.00559856615987

DFT components:
N(Alpha)           :        4.999998508633 electrons
N(Beta)            :        4.999998508633 electrons
N(Total)           :        9.999997017266 electrons
E(X)               :       -7.131704151150 Eh       
E(C)               :       -0.402530339354 Eh       
E(XC)              :       -7.534234490505 Eh       

---------------
SCF CONVERGENCE
---------------

  Last Energy change         ...    7.6199e-11  Tolerance :   1.0000e-08
  Last MAX-Density change    ...    3.4762e-06  Tolerance :   1.0000e-07
  Last RMS-Density change    ...    1.3574e-06  Tolerance :   5.0000e-09
  Last DIIS Error            ...    8.1968e-06  Tolerance :   5.0000e-07
  Last Orbital Gradient      ...    3.8061e-06  Tolerance :   1.0000e-05
  Last Orbital Rotation      ...    1.6998e-06  Tolerance :   1.0000e-05


----------------
ORBITAL ENERGIES
----------------

  NO   OCC          E(Eh)            E(eV) 
   0   2.0000     -19.122569      -520.3516 
   1   2.0000      -0.985984       -26.8300 
   2   2.0000      -0.528552       -14.3826 
   3   2.0000      -0.345658        -9.4058 
   4   2.0000      -0.283969        -7.7272 
   5   0.0000       0.073129         1.9899 
   6   0.0000       0.159213         4.3324 
   7   0.0000       0.786401        21.3991 
   8   0.0000       0.799588        21.7579 
   9   0.0000       0.898238        24.4423 
  10   0.0000       0.914820        24.8935 
  11   0.0000       1.028096        27.9759 
  12   0.0000       1.327224        36.1156 
  13   0.0000       1.515462        41.2378 
  14   0.0000       1.621712        44.1290 
  15   0.0000       1.682451        45.7818 
*Only the first 10 virtual orbitals were printed.

                    ********************************
                    * MULLIKEN POPULATION ANALYSIS *
                    ********************************

-----------------------
MULLIKEN ATOMIC CHARGES
-----------------------
   0 O :   -0.626819
   1 H :    0.313420
   2 H :    0.313399
Sum of atomic charges:    0.0000000

--------------------------------
MULLIKEN REDUCED ORBITAL CHARGES
--------------------------------
  0 O s       :     3.789045  s :     3.789045
      pz      :     1.525327  p :     4.822876
      px      :     1.637485
      py      :     1.660064
      dz2     :     0.000103  d :     0.014898
      dxz     :     0.005792
      dyz     :     0.002025
      dx2y2   :     0.003836
      dxy     :     0.003142

  1 H s       :     0.647676  s :     0.647676
      pz      :     0.014106  p :     0.038904
      px      :     0.014971
      py      :     0.009827

  2 H s       :     0.647695  s :     0.647695
      pz      :     0.014279  p :     0.038907
      px      :     0.008715
      py      :     0.015913



                     *******************************
                     * LOEWDIN POPULATION ANALYSIS *
                     *******************************

----------------------
LOEWDIN ATOMIC CHARGES
----------------------
   0 O :   -0.324868
   1 H :    0.162436
   2 H :    0.162432

-------------------------------
LOEWDIN REDUCED ORBITAL CHARGES
-------------------------------
  0 O s       :     3.488732  s :     3.488732
      pz      :     1.521386  p :     4.811528
      px      :     1.641787
      py      :     1.648355
      dz2     :     0.000022  d :     0.024608
      dxz     :     0.010062
      dyz     :     0.005587
      dx2y2   :     0.005136
      dxy     :     0.003801

  1 H s       :     0.717321  s :     0.717321
      pz      :     0.042409  p :     0.120243
      px      :     0.049159
      py      :     0.028674

  2 H s       :     0.717321  s :     0.717321
      pz      :     0.043010  p :     0.120247
      px      :     0.027314
      py      :     0.049924



                      *****************************
                      * MAYER POPULATION ANALYSIS *
                      *****************************

  NA   - Mulliken gross atomic population
  ZA   - Total nuclear charge
  QA   - Mulliken gross atomic charge
  VA   - Mayer's total valence
  BVA  - Mayer's bonded valence
  FA   - Mayer's free valence

  ATOM       NA         ZA         QA         VA         BVA        FA
  0 O      8.6268     8.0000    -0.6268     1.7846     1.7846     0.0000
  1 H      0.6866     1.0000     0.3134     0.8948     0.8948     0.0000
  2 H      0.6866     1.0000     0.3134     0.8949     0.8949     0.0000

  Mayer bond orders larger than 0.100000
B(  0-O ,  1-H ) :   0.8923 B(  0-O ,  2-H ) :   0.8923 

-------
TIMINGS
-------

Total SCF time: 0 days 0 hours 0 min 1 sec 

Total time                  ....       1.105 sec
Sum of individual times     ....       1.015 sec  ( 91.9%)

SCF preparation             ....       0.503 sec  ( 45.6%)
Fock matrix formation       ....       0.294 sec  ( 26.6%)
  Startup                   ....       0.006 sec  (  2.1% of F)
  Split-RI-J                ....       0.013 sec  (  4.5% of F)
  Chain of spheres X        ....       0.229 sec  ( 78.0% of F)
  XC integration            ....       0.067 sec  ( 22.8% of F)
    XC Preparation          ....       0.000 sec  (  0.0% of XC)
    Basis function eval.    ....       0.014 sec  ( 21.0% of XC)
    Density eval.           ....       0.006 sec  (  8.2% of XC)
    XC-Functional eval.     ....       0.009 sec  ( 14.0% of XC)
    XC-Potential eval.      ....       0.004 sec  (  5.7% of XC)
Diagonalization             ....       0.000 sec  (  0.0%)
Density matrix formation    ....       0.006 sec  (  0.6%)
Total Energy calculation    ....       0.002 sec  (  0.2%)
Population analysis         ....       0.188 sec  ( 17.0%)
Orbital Transformation      ....       0.002 sec  (  0.2%)
Orbital Orthonormalization  ....       0.000 sec  (  0.0%)
DIIS solution               ....       0.006 sec  (  0.6%)
SOSCF solution              ....       0.013 sec  (  1.2%)
Finished LeanSCF after   1.4 sec

Maximum memory used throughout the entire LEANSCF-calculation: 10.3 MB

-------------------------   --------------------
FINAL SINGLE POINT ENERGY       -76.378809453897
-------------------------   --------------------

                                *** OPTIMIZATION RUN DONE ***


Storing optimized geometry in water-scan.021.xyz ... done
Storing optimized geometry and energy in water-scan.xyzall ... done
Storing actual gbw-file in water-scan.021.gbw ... done


           ************************************************************
           *        Program running with 6 parallel MPI-processes     *
           *              working on a common directory               *
           ************************************************************

------------------------------------------------------------------------------
                              ORCA PROPERTY CALCULATIONS
------------------------------------------------------------------------------

GBWName                                 ... water-scan.gbw
Number of atoms                         ...      3
Number of basis functions               ...     24
Max core memory                         ...   4096 MB

Electric properties:
Dipole moment                           ... YES
Quadrupole moment                       ...  NO
Static polarizability (Dipole/Dipole)   ...  NO
Static polarizability (Dipole/Quad.)    ...  NO
Static polarizability (Quad./Quad.)     ...  NO
Static polarizability (Velocity)        ...  NO
Static hyperpolarizability              ...  NO

Atomic electric properties:
Dipole moment                           ...  NO
Quadrupole moment                       ...  NO
Static polarizability                   ...  NO

Choice of electric origin               ... Center of mass
Position of electric origin             ...    -8.000714     3.994106     0.001121

General magnetic properties:
Magnetizability                         ...  NO

EPR properties:
g-Tensor (aka g-matrix)                 ...  NO
Zero-Field splitting spin-orbit         ...  NO
Zero-field splitting spin-spin          ...  NO
Hyperfine couplings                     ...  NO (   0 nuclei)
Quadrupole couplings                    ...  NO (   0 nuclei)
Contact density                         ...  NO (   0 nuclei)

NMR properties:
Chemical shifts                         ...  NO (   0 nuclei)
Spin-rotation constants                 ...  NO (   0 nuclei)
Spin-spin couplings                     ...  NO (   0 nuclei,    0 pairs)

Choice of magnetic origin               ... GIAO
Position of magnetic origin             ...     0.000000     0.000000     0.000000

Properties with geometric perturbations:
SCF Hessian                             ...  NO
IR spectrum                             ...  NO
VCD spectrum                            ...  NO
X-ray spectroscopy properties:
SCF XES/XAS/RIXS spectra                ...  NO

SCF SOC stabilization energy            ...  NO
Diagonal Born-Oppenheimer correction    ...  NO

-------------
DIPOLE MOMENT
-------------

Method             : SCF
Type of density    : Electron Density
Multiplicity       :   1
Irrep              :   0
Energy             :   -76.3788094538966789 Eh
Basis              : AO
                                X                 Y                 Z
Electronic contribution:     -0.121814101      -0.056011313       0.001151259
Nuclear contribution   :      0.790349218       0.363889884      -0.007729148
                        -----------------------------------------
Total Dipole Moment    :      0.668535117       0.307878571      -0.006577888
                        -----------------------------------------
Magnitude (a.u.)       :      0.736051415
Magnitude (Debye)      :      1.870894014



--------------------
Rotational spectrum 
--------------------
 
Rotational constants in cm-1:            34.463666            12.907876             9.390716 
Rotational constants in MHz :       1033194.725292        386968.375211        281526.596474 

Dipole components along the rotational axes: 
x,y,z [a.u.] :    -0.000050    -0.736051    -0.000026 
x,y,z [Debye]:    -0.000127    -1.870894    -0.000066 

 

Dipole moment calculation done in   0.1 sec 

Maximum memory used throughout the entire PROP-calculation: 6.4 MB
                   **** RELAXED SURFACE SCAN DONE ***

                    SUMMARY OF THE CALCULATED SURFACE

----------------------------
RELAXED SURFACE SCAN RESULTS
----------------------------

Column   1: NONAME

The Calculated Surface using the 'Actual Energy'
  94.00000000 -76.37857746
  95.00000000 -76.37908046
  96.00000000 -76.37952590
  97.00000000 -76.37991599
  98.00000000 -76.38025142
  99.00000000 -76.38053288
 100.00000000 -76.38076110
 101.00000000 -76.38093681
 102.00000000 -76.38106076
 103.00000000 -76.38113371
 104.00000000 -76.38115645
 105.00000000 -76.38112976
 106.00000000 -76.38105451
 107.00000000 -76.38093153
 108.00000000 -76.38076177
 109.00000000 -76.38054592
 110.00000000 -76.38028499
 111.00000000 -76.37997992
 112.00000000 -76.37963165
 113.00000000 -76.37924115
 114.00000000 -76.37880945

The Calculated Surface using the SCF energy
  94.00000000 -76.37857746
  95.00000000 -76.37908046
  96.00000000 -76.37952590
  97.00000000 -76.37991599
  98.00000000 -76.38025142
  99.00000000 -76.38053288
 100.00000000 -76.38076110
 101.00000000 -76.38093681
 102.00000000 -76.38106076
 103.00000000 -76.38113371
 104.00000000 -76.38115645
 105.00000000 -76.38112976
 106.00000000 -76.38105451
 107.00000000 -76.38093153
 108.00000000 -76.38076177
 109.00000000 -76.38054592
 110.00000000 -76.38028499
 111.00000000 -76.37997992
 112.00000000 -76.37963165
 113.00000000 -76.37924115
 114.00000000 -76.37880945


--------------------------------
SUGGESTED CITATIONS FOR THIS RUN
--------------------------------

Below you find a list of papers that are relevant to this ORCA run
We neither can nor want to force you to cite these papers, but we appreciate if you do
You receive ORCA, which is the product of decades of hard work by many enthusiastic individuals, for free
The only thing we kindly ask in return is that you cite our papers,
We deeply appreciate it, if you show your appreciation for ORCA by not just citing the generic ORCA reference.

Please note that relegating all ORCA citations to the supporting information does *not* help us.
SI sections are not indexed - citations you put there will not count into any citation statistics
But we need these citations in order to attract the funding resources that allow us to do what we are doing

Therefore, if you are a happy ORCA user, please consider citing a few of the papers listed below in the main body of your paper

In addition to the list printed below, the program has created the file water-scan.bibtex that contains the list in bibtex format
You can import this file easily into all common literature databanks and citation aid programs


List of essential papers. We consider these as the minimum necessary citations

  1. Neese, F.
     Software update: the ORCA program system, version 6.0
     WIRES Comput. Molec. Sci. 2025 15(1), e70019
     doi.org/10.1002/wcms.7019

List of papers to cite with high priority. The work reported in these papers was absolutely
necessary for this run to complete.
Our perspective: the developers of density functionals and basis sets usually get cited in chemistry papers
Good! But without the algorithms to do something with them, the functionals or basis sets would not do anything.
Hence, in our opinion, the algorithm design and method developments papers are equally worthy of getting cited

  1. Neese, F.
     An improvement of the resolution of the identity approximation for the formation of the Coulomb matrix
     J. Comp. Chem. 2003 24(14), 1740-1747
     doi.org/10.1002/jcc.10318
  2. Neese, F.; Wennmohs, F.; Hansen, A.; Becker, U.
     Efficient, approximate and parallel Hartree-Fock and hybrid DFT calculations. A 'chain-of-spheres' algorithm for the Hartree-Fock exchange
     Chem. Phys. 2009 356(1-3), 98-109
     doi.org/10.1016/j.chemphys.2008.10.036
  3. Helmich-Paris, B.; de Souza, B.; Neese, F.; Izsák, R.
     An improved chain of spheres for exchange algorithm
     J. Chem. Phys. 2021 155(10), 104109
     doi.org/10.1063/5.0058766
  4. Neese, F.
     The SHARK Integral Generation and Digestion System
     J. Comp. Chem. 2022 44(3), 381
     doi.org/10.1002/jcc.26942

List of suggested additional citations. These are papers that are important in the 'surrounding' of 
of this run, or papers that preceded the highly important papers. If you like your results we are grateful for a citation.

  1. Izsak, R.; Neese, F.
     An overlap fitted chain of spheres exchange method
     J. Chem. Phys. 2011 135 , 144105
     doi.org/10.1063/1.3646921
  2. Izsak, R.; Hansen, A.; Neese, F.
     The resolution of identity and chain of spheres approximations for the LPNO-CCSD singles Fock term
     Molec. Phys. 2012 110 , 2413-2417
     doi.org/10.1080/00268976.2012.687466
  3. Neese, F.
     The ORCA program system
     WIRES Comput. Molec. Sci. 2012 2(1), 73-78
     doi.org/10.1002/wcms.81
  4. Izsak, R.; Neese, F.; Klopper, W.
     Robust fitting techniques in the chain of spheres approximation to the Fock exchange: The role of the complementary space
     J. Chem. Phys. 2013 139 , 
     doi.org/10.1063/1.4819264
  5. Neese, F.
     Software update: the ORCA program system, version 4.0
     WIRES Comput. Molec. Sci. 2018 8(1), 1-6
     doi.org/10.1002/wcms.1327
  6. Neese, F.; Wennmohs, F.; Becker, U.; Riplinger, C.
     The ORCA quantum chemistry program package
     J. Chem. Phys. 2020 152(22), 224108
     doi.org/10.1063/5.0004608
  7. Neese, F.
     Software update: The ORCA program system—Version 5.0
     WIRES Comput. Molec. Sci. 2022 12(1), e1606
     doi.org/10.1002/wcms.1606

List of optional additional citations

  1. Neese, F.
     Approximate second-order SCF convergence for spin unrestricted wavefunctions
     Chem. Phys. Lett. 2000 325(1-3), 93-98
     doi.org/10.1016/s0009-2614(00)00662-x

Timings for individual modules:

Sum of individual times          ...      375.550 sec (=   6.259 min)
Startup calculation              ...       87.026 sec (=   1.450 min)  23.2 %
SCF iterations                   ...      198.832 sec (=   3.314 min)  52.9 %
Property calculations            ...       25.407 sec (=   0.423 min)   6.8 %
SCF Gradient evaluation          ...       64.160 sec (=   1.069 min)  17.1 %
Geometry relaxation              ...        0.126 sec (=   0.002 min)   0.0 %
                             ****ORCA TERMINATED NORMALLY****
TOTAL RUN TIME: 0 days 0 hours 7 minutes 33 seconds 198 msec
